nqpoint: 427    
npath: 6      
segment_nqpoint:
- 95
- 34
- 101
- 82
- 67
- 48
labels:
- [ '$\Gamma$', '$\mathrm{X}$' ]
- [ '$\mathrm{X}$', '$\mathrm{U}$' ]
- [ '$\mathrm{K}$', '$\Gamma$' ]
- [ '$\Gamma$', '$\mathrm{L}$' ]
- [ '$\mathrm{L}$', '$\mathrm{W}$' ]
- [ '$\mathrm{W}$', '$\mathrm{X}$' ]
reciprocal_lattice:
- [  -0.18416206,   0.18416206,   0.18416206 ] # a*
- [   0.18416206,  -0.18416206,   0.18416206 ] # b*
- [   0.18416206,   0.18416206,  -0.18416206 ] # c*
natom: 2      
lattice:
- [     0.000000000000000,     2.715000000000000,     2.715000000000000 ] # a
- [     2.715000000000000,     0.000000000000000,     2.715000000000000 ] # b
- [     2.715000000000000,     2.715000000000000,     0.000000000000000 ] # c
points:
- symbol: Si # 1
  coordinates: [  0.000000000000000,  0.000000000000000,  0.000000000000000 ]
  mass: 28.085000
- symbol: Si # 2
  coordinates: [  0.250000000000000,  0.250000000000000,  0.250000000000000 ]
  mass: 28.085000

phonon:
- q-position: [    0.0000000,    0.0000000,    0.0000000 ]
  distance:    0.0000000
  band:
  - # 1
    frequency:    0.0000001647
    eigenvector:
    - # atom 1
      - [  0.00000000000000,  0.00000000000000 ]
      - [  0.51246751199867,  0.00000000000000 ]
      - [ -0.48721355599561,  0.00000000000000 ]
    - # atom 2
      - [  0.00000000000000,  0.00000000000000 ]
      - [  0.51246751199867,  0.00000000000000 ]
      - [ -0.48721355599562,  0.00000000000000 ]
  - # 2
    frequency:    0.0000003294
    eigenvector:
    - # atom 1
      - [  0.70710678118655,  0.00000000000000 ]
      - [  0.00000000000000,  0.00000000000000 ]
      - [  0.00000000000000,  0.00000000000000 ]
    - # atom 2
      - [  0.70710678118655,  0.00000000000000 ]
      - [  0.00000000000000,  0.00000000000000 ]
      - [ -0.00000000000000,  0.00000000000000 ]
  - # 3
    frequency:    0.0000003495
    eigenvector:
    - # atom 1
      - [ -0.00000000000000,  0.00000000000000 ]
      - [ -0.48721355599561,  0.00000000000000 ]
      - [ -0.51246751199867,  0.00000000000000 ]
    - # atom 2
      - [  0.00000000000000,  0.00000000000000 ]
      - [ -0.48721355599562,  0.00000000000000 ]
      - [ -0.51246751199867,  0.00000000000000 ]
  - # 4
    frequency:   14.9484149192
    eigenvector:
    - # atom 1
      - [ -0.00000000000000,  0.00000000000000 ]
      - [ -0.42956384432005,  0.00000000000000 ]
      - [  0.56167152647520,  0.00000000000000 ]
    - # atom 2
      - [ -0.00000000000000,  0.00000000000000 ]
      - [  0.42956384432005,  0.00000000000000 ]
      - [ -0.56167152647520,  0.00000000000000 ]
  - # 5
    frequency:   14.9484149192
    eigenvector:
    - # atom 1
      - [  0.00000000000000,  0.00000000000000 ]
      - [ -0.56167152647520,  0.00000000000000 ]
      - [ -0.42956384432005,  0.00000000000000 ]
    - # atom 2
      - [  0.00000000000000,  0.00000000000000 ]
      - [  0.56167152647520,  0.00000000000000 ]
      - [  0.42956384432005,  0.00000000000000 ]
  - # 6
    frequency:   14.9484149192
    eigenvector:
    - # atom 1
      - [ -0.70710678118655,  0.00000000000000 ]
      - [  0.00000000000000,  0.00000000000000 ]
      - [  0.00000000000000,  0.00000000000000 ]
    - # atom 2
      - [  0.70710678118655,  0.00000000000000 ]
      - [  0.00000000000000,  0.00000000000000 ]
      - [ -0.00000000000000,  0.00000000000000 ]

- q-position: [    0.0053191,    0.0000000,    0.0053191 ]
  distance:    0.0019592
  band:
  - # 1
    frequency:    0.0914611732
    eigenvector:
    - # atom 1
      - [ -0.01564301509419,  0.00000000000000 ]
      - [ -0.00000000000044, -0.00000000000001 ]
      - [ -0.70677486062235,  0.01498640954402 ]
    - # atom 2
      - [ -0.01549443486240,  0.00697131206767 ]
      - [ -0.00000000000044, -0.00000000000001 ]
      - [ -0.70674047882925,  0.01513997624018 ]
  - # 2
    frequency:    0.0914611732
    eigenvector:
    - # atom 1
      - [  0.70693372820850,  0.00000000000000 ]
      - [  0.00000000000041, -0.00000000000000 ]
      - [ -0.01563949967549,  0.00033161896420 ]
    - # atom 2
      - [  0.70690260962871,  0.00015426105100 ]
      - [  0.00000000000041, -0.00000000000000 ]
      - [ -0.01563873887588, -0.00664127623445 ]
  - # 3
    frequency:    0.1509371106
    eigenvector:
    - # atom 1
      - [  0.00000000000042,  0.00000000000000 ]
      - [ -0.70710289255119,  0.00234506838813 ]
      - [  0.00000000000043, -0.00000000000002 ]
    - # atom 2
      - [  0.00000000000042, -0.00000000000000 ]
      - [ -0.70710289255119,  0.00234506838813 ]
      - [  0.00000000000043, -0.00000000000002 ]
  - # 4
    frequency:   14.9480106052
    eigenvector:
    - # atom 1
      - [  0.70708762838328,  0.00000000000000 ]
      - [ -0.00000000000217,  0.00000000000001 ]
      - [ -0.00516083531913,  0.00067198669954 ]
    - # atom 2
      - [ -0.70705985955242, -0.00005090417832 ]
      - [  0.00000000000217, -0.00000000000001 ]
      - [  0.00516058426496,  0.00630244305935 ]
  - # 5
    frequency:   14.9480106052
    eigenvector:
    - # atom 1
      - [ -0.00520440076431,  0.00000000000000 ]
      - [  0.00000000000998, -0.00000000000129 ]
      - [ -0.70116867849719,  0.09129840363984 ]
    - # atom 2
      - [  0.00430362084816, -0.00691601518704 ]
      - [ -0.00000000000998,  0.00000000000129 ]
      - [  0.70113456942261, -0.09134529622314 ]
  - # 6
    frequency:   14.9481012651
    eigenvector:
    - # atom 1
      - [  0.00000000000225, -0.00000000000000 ]
      - [  0.70708483466982, -0.00557104837135 ]
      - [  0.00000000001004, -0.00000000000009 ]
    - # atom 2
      - [ -0.00000000000224,  0.00000000000010 ]
      - [ -0.70708483466982,  0.00557104837135 ]
      - [ -0.00000000001004,  0.00000000000011 ]

- q-position: [    0.0106383,    0.0000000,    0.0106383 ]
  distance:    0.0039183
  band:
  - # 1
    frequency:    0.1829030280
    eigenvector:
    - # atom 1
      - [  0.05775074194709,  0.00000000000000 ]
      - [ -0.00000000000024, -0.00000000000001 ]
      - [  0.70474079892458, -0.00229306251675 ]
    - # atom 2
      - [  0.05769425546234, -0.01390512472026 ]
      - [ -0.00000000000024, -0.00000000000001 ]
      - [  0.70460360570705, -0.00343208650694 ]
  - # 2
    frequency:    0.1829030280
    eigenvector:
    - # atom 1
      - [  0.70474452946054, -0.00000000000000 ]
      - [ -0.00000000000009, -0.00000000000000 ]
      - [ -0.05775043624593,  0.00018790647694 ]
    - # atom 2
      - [  0.70461104306855,  0.00113946435324 ]
      - [ -0.00000000000009, -0.00000000000000 ]
      - [ -0.05773919385983, -0.01371732843002 ]
  - # 3
    frequency:    0.3018528592
    eigenvector:
    - # atom 1
      - [ -0.00000000000011,  0.00000000000000 ]
      - [ -0.70689591610608, -0.01726741997378 ]
      - [ -0.00000000000023,  0.00000000000000 ]
    - # atom 2
      - [ -0.00000000000011,  0.00000000000000 ]
      - [ -0.70689591610608, -0.01726741997378 ]
      - [ -0.00000000000023,  0.00000000000000 ]
  - # 4
    frequency:   14.9467979449
    eigenvector:
    - # atom 1
      - [ -0.14138587233490,  0.00000000000000 ]
      - [  0.00000000000259,  0.00000000000004 ]
      - [  0.69191094224402, -0.03562699969248 ]
    - # atom 2
      - [  0.14206129894865,  0.01365198092959 ]
      - [ -0.00000000000259, -0.00000000000004 ]
      - [ -0.69177624663883,  0.03283040273907 ]
  - # 5
    frequency:   14.9467979449
    eigenvector:
    - # atom 1
      - [  0.69282756520227,  0.00000000000000 ]
      - [  0.00000000000111,  0.00000000000003 ]
      - [  0.14119881635869, -0.00727043016645 ]
    - # atom 2
      - [ -0.69254923949528,  0.00278597060766 ]
      - [ -0.00000000000111, -0.00000000000003 ]
      - [ -0.14117132891940,  0.02093908148445 ]
  - # 6
    frequency:   14.9471602140
    eigenvector:
    - # atom 1
      - [ -0.00000000000057,  0.00000000000000 ]
      - [  0.70671818673637,  0.02343938002730 ]
      - [ -0.00000000000276,  0.00000000000009 ]
    - # atom 2
      - [  0.00000000000057, -0.00000000000005 ]
      - [ -0.70671818673637, -0.02343938002730 ]
      - [  0.00000000000276, -0.00000000000010 ]

- q-position: [    0.0159574,    0.0000000,    0.0159574 ]
  distance:    0.0058775
  band:
  - # 1
    frequency:    0.2743062751
    eigenvector:
    - # atom 1
      - [  0.13265425870975,  0.00000000000000 ]
      - [  0.00000000000010, -0.00000000000001 ]
      - [  0.67423818990530, -0.16675044503508 ]
    - # atom 2
      - [  0.12765936942546, -0.01996120401718 ]
      - [  0.00000000000010, -0.00000000000001 ]
      - [  0.67394264374719, -0.17060465606520 ]
  - # 2
    frequency:    0.2743062751
    eigenvector:
    - # atom 1
      - [  0.69455226415740,  0.00000000000000 ]
      - [  0.00000000000003,  0.00000000000000 ]
      - [ -0.12877442331024,  0.03184808086758 ]
    - # atom 2
      - [  0.69519069400745,  0.00381243983859 ]
      - [  0.00000000000003,  0.00000000000000 ]
      - [ -0.12871797621685,  0.01127150684508 ]
  - # 3
    frequency:    0.4527259029
    eigenvector:
    - # atom 1
      - [  0.00000000000005, -0.00000000000000 ]
      - [ -0.70708250429853,  0.00585936130609 ]
      - [  0.00000000000009, -0.00000000000002 ]
    - # atom 2
      - [  0.00000000000005, -0.00000000000000 ]
      - [ -0.70708250429853,  0.00585936130609 ]
      - [  0.00000000000009, -0.00000000000002 ]
  - # 4
    frequency:   14.9447777826
    eigenvector:
    - # atom 1
      - [ -0.00931687039916,  0.00000000000000 ]
      - [ -0.00000000000071,  0.00000000000008 ]
      - [ -0.70215421958691,  0.08302197204514 ]
    - # atom 2
      - [  0.00685487386439, -0.02078767390893 ]
      - [  0.00000000000071, -0.00000000000008 ]
      - [  0.70184643669193, -0.08326141135365 ]
  - # 5
    frequency:   14.9447777826
    eigenvector:
    - # atom 1
      - [  0.70704539877293,  0.00000000000000 ]
      - [ -0.00000000000025,  0.00000000000001 ]
      - [ -0.00925241840972,  0.00109399616371 ]
    - # atom 2
      - [ -0.70676786025108, -0.00027392309468 ]
      - [  0.00000000000025, -0.00000000000001 ]
      - [  0.00924836269654,  0.01983896342237 ]
  - # 6
    frequency:   14.9455914990
    eigenvector:
    - # atom 1
      - [ -0.00000000000024,  0.00000000000000 ]
      - [ -0.70674023393826,  0.02276492330086 ]
      - [  0.00000000000071, -0.00000000000003 ]
    - # atom 2
      - [  0.00000000000024,  0.00000000000002 ]
      - [  0.70674023393826, -0.02276492330086 ]
      - [ -0.00000000000071,  0.00000000000002 ]

- q-position: [    0.0212766,    0.0000000,    0.0212766 ]
  distance:    0.0078367
  band:
  - # 1
    frequency:    0.3656516836
    eigenvector:
    - # atom 1
      - [  0.13876029680221,  0.00000000000000 ]
      - [ -0.00000000000002,  0.00000000000001 ]
      - [  0.69034614321325, -0.06455836570078 ]
    - # atom 2
      - [  0.13610254658820, -0.02726278008572 ]
      - [ -0.00000000000002,  0.00000000000001 ]
      - [  0.68980760960677, -0.06998785153725 ]
  - # 2
    frequency:    0.3656516836
    eigenvector:
    - # atom 1
      - [  0.69335819028217,  0.00000000000000 ]
      - [  0.00000000000002, -0.00000000000000 ]
      - [ -0.13815750224217,  0.01291992812843 ]
    - # atom 2
      - [  0.69332753388217,  0.00545604207085 ]
      - [  0.00000000000002, -0.00000000000000 ]
      - [ -0.13804972665933, -0.01447188084115 ]
  - # 3
    frequency:    0.6035349375
    eigenvector:
    - # atom 1
      - [ -0.00000000000002,  0.00000000000000 ]
      - [  0.70701168912026, -0.01159618244564 ]
      - [  0.00000000000003,  0.00000000000001 ]
    - # atom 2
      - [ -0.00000000000002, -0.00000000000000 ]
      - [  0.70701168912026, -0.01159618244564 ]
      - [  0.00000000000003,  0.00000000000001 ]
  - # 4
    frequency:   14.9419515254
    eigenvector:
    - # atom 1
      - [ -0.23358481706526,  0.00000000000000 ]
      - [ -0.00000000000112,  0.00000000000003 ]
      - [  0.66467294959372, -0.06039870292455 ]
    - # atom 2
      - [  0.23578783260506,  0.02624890807582 ]
      - [  0.00000000000112, -0.00000000000003 ]
      - [ -0.66415444344403,  0.05112697990089 ]
  - # 5
    frequency:   14.9419515254
    eigenvector:
    - # atom 1
      - [  0.66741151715908,  0.00000000000000 ]
      - [ -0.00000000000049,  0.00000000000001 ]
      - [  0.23262635622464, -0.02113871219014 ]
    - # atom 2
      - [ -0.66605607597602,  0.00918675544760 ]
      - [  0.00000000000049, -0.00000000000001 ]
      - [ -0.23244488623048,  0.04747928016585 ]
  - # 6
    frequency:   14.9433946760
    eigenvector:
    - # atom 1
      - [ -0.00000000000009,  0.00000000000000 ]
      - [ -0.70679939724773,  0.02084735115645 ]
      - [ -0.00000000000121,  0.00000000000011 ]
    - # atom 2
      - [  0.00000000000008, -0.00000000000005 ]
      - [  0.70679939724773, -0.02084735115645 ]
      - [  0.00000000000121, -0.00000000000011 ]

- q-position: [    0.0265957,    0.0000000,    0.0265957 ]
  distance:    0.0097959
  band:
  - # 1
    frequency:    0.4569201092
    eigenvector:
    - # atom 1
      - [  0.70710678118655,  0.00000000000000 ]
      - [  0.00000000000000,  0.00000000000000 ]
      - [  0.00000000000000, -0.00000000000000 ]
    - # atom 2
      - [  0.70624372834368,  0.00000000000000 ]
      - [  0.00000000000000, -0.00000000000000 ]
      - [ -0.00000000000000, -0.03492558052798 ]
  - # 2
    frequency:    0.4569201092
    eigenvector:
    - # atom 1
      - [ -0.00000000000000,  0.00000000000000 ]
      - [  0.00000000000006,  0.00000000000001 ]
      - [  0.50880546617920, -0.49103665605143 ]
    - # atom 2
      - [ -0.02425339528542, -0.02513103643597 ]
      - [  0.00000000000006,  0.00000000000001 ]
      - [  0.50818444822868, -0.49043732566282 ]
  - # 3
    frequency:    0.7542587157
    eigenvector:
    - # atom 1
      - [  0.00000000000000,  0.00000000000000 ]
      - [  0.70283297047218,  0.07762612715606 ]
      - [ -0.00000000000004,  0.00000000000005 ]
    - # atom 2
      - [  0.00000000000000,  0.00000000000000 ]
      - [  0.70283297047218,  0.07762612715606 ]
      - [ -0.00000000000004,  0.00000000000005 ]
  - # 4
    frequency:   14.9383211438
    eigenvector:
    - # atom 1
      - [  0.00000000000000,  0.00000000000000 ]
      - [ -0.00000000000007,  0.00000000000008 ]
      - [ -0.68092783320089,  0.19062341401920 ]
    - # atom 2
      - [ -0.00941531544313, -0.03363254391691 ]
      - [  0.00000000000007, -0.00000000000008 ]
      - [  0.68009673283831, -0.19039075032008 ]
  - # 5
    frequency:   14.9383211438
    eigenvector:
    - # atom 1
      - [ -0.70710678118655,  0.00000000000000 ]
      - [  0.00000000000000,  0.00000000000000 ]
      - [  0.00000000000000, -0.00000000000000 ]
    - # atom 2
      - [  0.70624372834368,  0.00000000000000 ]
      - [  0.00000000000000, -0.00000000000000 ]
      - [ -0.00000000000000, -0.03492558052798 ]
  - # 6
    frequency:   14.9405691252
    eigenvector:
    - # atom 1
      - [  0.00000000000000,  0.00000000000000 ]
      - [  0.69698788840724,  0.11919682635716 ]
      - [ -0.00000000000008, -0.00000000000007 ]
    - # atom 2
      - [  0.00000000000000, -0.00000000000000 ]
      - [ -0.69698788840724, -0.11919682635716 ]
      - [  0.00000000000008,  0.00000000000007 ]

- q-position: [    0.0319149,    0.0000000,    0.0319149 ]
  distance:    0.0117550
  band:
  - # 1
    frequency:    0.5480925214
    eigenvector:
    - # atom 1
      - [ -0.30371949235032,  0.00000000000000 ]
      - [  0.00000000000002,  0.00000000000005 ]
      - [  0.31473722291246,  0.55560323116395 ]
    - # atom 2
      - [ -0.27023111179129, -0.01866755239943 ]
      - [  0.00000000000002,  0.00000000000004 ]
      - [  0.31418313445196,  0.57263917673645 ]
  - # 2
    frequency:    0.5480925214
    eigenvector:
    - # atom 1
      - [ -0.63855655189377,  0.00000000000000 ]
      - [ -0.00000000000003, -0.00000000000002 ]
      - [ -0.14969986492696, -0.26426403552959 ]
    - # atom 2
      - [ -0.65310629555415,  0.00887893095978 ]
      - [ -0.00000000000003, -0.00000000000002 ]
      - [ -0.14943632136854, -0.22592502550267 ]
  - # 3
    frequency:    0.9048760659
    eigenvector:
    - # atom 1
      - [  0.00000000000002,  0.00000000000000 ]
      - [ -0.70667924506581,  0.02458545491178 ]
      - [  0.00000000000006, -0.00000000000000 ]
    - # atom 2
      - [  0.00000000000002, -0.00000000000000 ]
      - [ -0.70667924506581,  0.02458545491178 ]
      - [  0.00000000000006, -0.00000000000000 ]
  - # 4
    frequency:   14.9338891715
    eigenvector:
    - # atom 1
      - [ -0.06612718359743,  0.00000000000000 ]
      - [  0.00000000000013,  0.00000000000001 ]
      - [ -0.67822930487954, -0.18876494799640 ]
    - # atom 2
      - [  0.07720670961050, -0.04022683103863 ]
      - [ -0.00000000000013, -0.00000000000001 ]
      - [  0.67703529602376,  0.18451052542804 ]
  - # 5
    frequency:   14.9338891715
    eigenvector:
    - # atom 1
      - [  0.70400795136807,  0.00000000000000 ]
      - [ -0.00000000000010,  0.00000000000001 ]
      - [ -0.06370580570542, -0.01773061561117 ]
    - # atom 2
      - [ -0.70171692944422, -0.00377849005322 ]
      - [  0.00000000000010, -0.00000000000001 ]
      - [  0.06359365293404,  0.05945520373186 ]
  - # 6
    frequency:   14.9371140519
    eigenvector:
    - # atom 1
      - [  0.00000000000011, -0.00000000000000 ]
      - [  0.70644524253257, -0.03057972045489 ]
      - [  0.00000000000012,  0.00000000000002 ]
    - # atom 2
      - [ -0.00000000000011,  0.00000000000001 ]
      - [ -0.70644524253257,  0.03057972045489 ]
      - [ -0.00000000000012, -0.00000000000001 ]

- q-position: [    0.0372340,    0.0000000,    0.0372340 ]
  distance:    0.0137142
  band:
  - # 1
    frequency:    0.6391500298
    eigenvector:
    - # atom 1
      - [  0.03277999590900, -0.00000000000000 ]
      - [ -0.00000000000001,  0.00000000000001 ]
      - [  0.67811314143720, -0.19770695303497 ]
    - # atom 2
      - [  0.01900947774438, -0.04696143042420 ]
      - [ -0.00000000000001,  0.00000000000001 ]
      - [  0.67648507495905, -0.19950239889799 ]
  - # 2
    frequency:    0.6391500298
    eigenvector:
    - # atom 1
      - [ -0.70634656640222,  0.00000000000000 ]
      - [ -0.00000000000001,  0.00000000000000 ]
      - [  0.03146974454108, -0.00917514633741 ]
    - # atom 2
      - [ -0.70528612216892, -0.00217937705145 ]
      - [ -0.00000000000001,  0.00000000000000 ]
      - [  0.03139418954438,  0.03976356440830 ]
  - # 3
    frequency:    1.0553659095
    eigenvector:
    - # atom 1
      - [ -0.00000000000001,  0.00000000000000 ]
      - [  0.70655966151474, -0.02781087413531 ]
      - [  0.00000000000001,  0.00000000000000 ]
    - # atom 2
      - [ -0.00000000000001, -0.00000000000000 ]
      - [  0.70655966151474, -0.02781087413531 ]
      - [  0.00000000000002,  0.00000000000000 ]
  - # 4
    frequency:   14.9286587060
    eigenvector:
    - # atom 1
      - [ -0.31127542334203,  0.00000000000000 ]
      - [  0.00000000000020, -0.00000000000007 ]
      - [ -0.60974955277361,  0.17695506128852 ]
    - # atom 2
      - [  0.29827340444229, -0.04222704066475 ]
      - [ -0.00000000000021,  0.00000000000007 ]
      - [  0.60828561888665, -0.19808699880303 ]
  - # 5
    frequency:   14.9286587060
    eigenvector:
    - # atom 1
      - [  0.63490756084901,  0.00000000000000 ]
      - [  0.00000000000002, -0.00000000000003 ]
      - [ -0.29894123471835,  0.08675556098504 ]
    - # atom 2
      - [ -0.63939131634462, -0.02070260423710 ]
      - [ -0.00000000000002,  0.00000000000003 ]
      - [  0.29822351348063, -0.04257796106159 ]
  - # 6
    frequency:   14.9330284890
    eigenvector:
    - # atom 1
      - [ -0.00000000000007,  0.00000000000000 ]
      - [ -0.70598837417936,  0.03975444030028 ]
      - [ -0.00000000000021, -0.00000000000001 ]
    - # atom 2
      - [  0.00000000000007, -0.00000000000001 ]
      - [  0.70598837417936, -0.03975444030028 ]
      - [  0.00000000000021,  0.00000000000001 ]

- q-position: [    0.0425532,    0.0000000,    0.0425532 ]
  distance:    0.0156734
  band:
  - # 1
    frequency:    0.7300739083
    eigenvector:
    - # atom 1
      - [  0.70561286851876, -0.00000000000000 ]
      - [  0.00000000000001, -0.00000000000000 ]
      - [ -0.04549909515115, -0.00634918271573 ]
    - # atom 2
      - [  0.70289222511637,  0.00360446071741 ]
      - [  0.00000000000001, -0.00000000000000 ]
      - [ -0.04535609686151, -0.06222822680568 ]
  - # 2
    frequency:    0.7300739083
    eigenvector:
    - # atom 1
      - [ -0.04593995843197,  0.00000000000000 ]
      - [  0.00000000000003,  0.00000000000000 ]
      - [ -0.69884144741125, -0.09752000614961 ]
    - # atom 2
      - [ -0.05352115745801,  0.05536256350860 ]
      - [  0.00000000000003,  0.00000000000000 ]
      - [ -0.69664507116724, -0.09357412614877 ]
  - # 3
    frequency:    1.2057072780
    eigenvector:
    - # atom 1
      - [  0.00000000000001,  0.00000000000000 ]
      - [ -0.70585398499885,  0.04207317270237 ]
      - [ -0.00000000000003, -0.00000000000000 ]
    - # atom 2
      - [  0.00000000000001,  0.00000000000000 ]
      - [ -0.70585398499885,  0.04207317270237 ]
      - [ -0.00000000000003, -0.00000000000000 ]
  - # 4
    frequency:   14.9226334083
    eigenvector:
    - # atom 1
      - [  0.70710674755552,  0.00000000000000 ]
      - [ -0.00000000000005,  0.00000000000000 ]
      - [ -0.00020033345157,  0.00008618566478 ]
    - # atom 2
      - [ -0.70489122211880, -0.00001587051466 ]
      - [  0.00000000000005, -0.00000000000000 ]
      - [  0.00019970382716,  0.05593142986169 ]
  - # 5
    frequency:   14.9226334083
    eigenvector:
    - # atom 1
      - [  0.00021808590195,  0.00000000000000 ]
      - [ -0.00000000000022, -0.00000000000003 ]
      - [  0.64954742188818, -0.27944247915618 ]
    - # atom 2
      - [  0.02192017028661,  0.05145746653886 ]
      - [  0.00000000000022,  0.00000000000003 ]
      - [ -0.64750597095238,  0.27858150127570 ]
  - # 6
    frequency:   14.9283112992
    eigenvector:
    - # atom 1
      - [  0.00000000000005, -0.00000000000000 ]
      - [  0.70446394205917, -0.06107826404255 ]
      - [  0.00000000000018, -0.00000000000013 ]
    - # atom 2
      - [ -0.00000000000004,  0.00000000000001 ]
      - [ -0.70446394205917,  0.06107826404255 ]
      - [ -0.00000000000018,  0.00000000000013 ]

- q-position: [    0.0478723,    0.0000000,    0.0478723 ]
  distance:    0.0176325
  band:
  - # 1
    frequency:    0.8208456176
    eigenvector:
    - # atom 1
      - [  0.00000000000000,  0.00000000000000 ]
      - [ -0.00000000000001,  0.00000000000000 ]
      - [  0.69718967372506,  0.11801084209152 ]
    - # atom 2
      - [  0.01052861684404, -0.06220142837877 ]
      - [ -0.00000000000001,  0.00000000000000 ]
      - [  0.69440940622697,  0.11754023599815 ]
  - # 2
    frequency:    0.8208456176
    eigenvector:
    - # atom 1
      - [  0.70710678118655,  0.00000000000000 ]
      - [  0.00000000000000,  0.00000000000000 ]
      - [  0.00000000000000, -0.00000000000000 ]
    - # atom 2
      - [  0.70428696604083,  0.00000000000000 ]
      - [  0.00000000000000, -0.00000000000000 ]
      - [ -0.00000000000000, -0.06308620661450 ]
  - # 3
    frequency:    1.3558793285
    eigenvector:
    - # atom 1
      - [  0.00000000000000,  0.00000000000000 ]
      - [ -0.70087190430315,  0.09369404334573 ]
      - [ -0.00000000000001, -0.00000000000000 ]
    - # atom 2
      - [ -0.00000000000000,  0.00000000000000 ]
      - [ -0.70087190430315,  0.09369404334573 ]
      - [ -0.00000000000001, -0.00000000000000 ]
  - # 4
    frequency:   14.9158175038
    eigenvector:
    - # atom 1
      - [ -0.70710678118655,  0.00000000000000 ]
      - [  0.00000000000000,  0.00000000000000 ]
      - [  0.00000000000000, -0.00000000000000 ]
    - # atom 2
      - [  0.70428696604083,  0.00000000000000 ]
      - [  0.00000000000000, -0.00000000000000 ]
      - [ -0.00000000000000, -0.06308620661450 ]
  - # 5
    frequency:   14.9158175038
    eigenvector:
    - # atom 1
      - [ -0.00000000000000,  0.00000000000000 ]
      - [  0.00000000000011,  0.00000000000009 ]
      - [ -0.54144715221727, -0.45479114036644 ]
    - # atom 2
      - [  0.04057526898478, -0.04830649036952 ]
      - [ -0.00000000000011, -0.00000000000009 ]
      - [  0.53928795798939,  0.45297751478702 ]
  - # 6
    frequency:   14.9229611774
    eigenvector:
    - # atom 1
      - [  0.00000000000000,  0.00000000000000 ]
      - [  0.69748191221300, -0.11627115779804 ]
      - [  0.00000000000014, -0.00000000000002 ]
    - # atom 2
      - [  0.00000000000000,  0.00000000000001 ]
      - [ -0.69748191221300,  0.11627115779804 ]
      - [ -0.00000000000014,  0.00000000000002 ]

- q-position: [    0.0531915,    0.0000000,    0.0531915 ]
  distance:    0.0195917
  band:
  - # 1
    frequency:    0.9114468260
    eigenvector:
    - # atom 1
      - [ -0.05917379227112,  0.00000000000000 ]
      - [ -0.00000000000000,  0.00000000000000 ]
      - [ -0.69305439294975,  0.12717731999578 ]
    - # atom 2
      - [ -0.04625963376921,  0.06878377699058 ]
      - [ -0.00000000000000,  0.00000000000000 ]
      - [ -0.68963264395608,  0.13242225906770 ]
  - # 2
    frequency:    0.9114468260
    eigenvector:
    - # atom 1
      - [  0.70462647005932,  0.00000000000000 ]
      - [  0.00000000000001, -0.00000000000000 ]
      - [ -0.05820198136687,  0.01068021800883 ]
    - # atom 2
      - [  0.70220757018918,  0.00577638948324 ]
      - [  0.00000000000001, -0.00000000000000 ]
      - [ -0.05791462647353, -0.05930478677124 ]
  - # 3
    frequency:    1.5058613590
    eigenvector:
    - # atom 1
      - [ -0.00000000000001,  0.00000000000000 ]
      - [  0.70587111229102, -0.04178483975125 ]
      - [ -0.00000000000000, -0.00000000000000 ]
    - # atom 2
      - [ -0.00000000000001,  0.00000000000000 ]
      - [  0.70587111229102, -0.04178483975125 ]
      - [ -0.00000000000000,  0.00000000000000 ]
  - # 4
    frequency:   14.9082157826
    eigenvector:
    - # atom 1
      - [  0.10044567915567,  0.00000000000000 ]
      - [ -0.00000000000029, -0.00000000000005 ]
      - [ -0.65010781472039, -0.25936556205177 ]
    - # atom 2
      - [ -0.07420842697785, -0.06452144507336 ]
      - [  0.00000000000029,  0.00000000000005 ]
      - [  0.64689810162511,  0.26805398449743 ]
  - # 5
    frequency:   14.9082157826
    eigenvector:
    - # atom 1
      - [ -0.69993618676202,  0.00000000000000 ]
      - [ -0.00000000000001, -0.00000000000001 ]
      - [ -0.09329496346815, -0.03722075029497 ]
    - # atom 2
      - [  0.70017451992419, -0.00925927319243 ]
      - [  0.00000000000001,  0.00000000000001 ]
      - [  0.09283434746080, -0.03242979248175 ]
  - # 6
    frequency:   14.9169766538
    eigenvector:
    - # atom 1
      - [ -0.00000000000003,  0.00000000000000 ]
      - [ -0.70563476420740,  0.04560240719490 ]
      - [  0.00000000000029,  0.00000000000004 ]
    - # atom 2
      - [  0.00000000000002,  0.00000000000003 ]
      - [  0.70563476420740, -0.04560240719490 ]
      - [ -0.00000000000028, -0.00000000000005 ]

- q-position: [    0.0585106,    0.0000000,    0.0585106 ]
  distance:    0.0215509
  band:
  - # 1
    frequency:    1.0018594271
    eigenvector:
    - # atom 1
      - [  0.11970424828227,  0.00000000000000 ]
      - [  0.00000000000001,  0.00000000000000 ]
      - [  0.68872239990315, -0.10645350541349 ]
    - # atom 2
      - [  0.10735005510093, -0.07528688092496 ]
      - [  0.00000000000001,  0.00000000000000 ]
      - [  0.68459508447618, -0.11890088957393 ]
  - # 2
    frequency:    1.0018594271
    eigenvector:
    - # atom 1
      - [ -0.69690092046372,  0.00000000000000 ]
      - [  0.00000000000000,  0.00000000000000 ]
      - [  0.11829945223879, -0.01828514853167 ]
    - # atom 2
      - [ -0.69472341306725, -0.01293176579627 ]
      - [  0.00000000000000,  0.00000000000000 ]
      - [  0.11759051761681,  0.05800533541144 ]
  - # 3
    frequency:    1.6556328218
    eigenvector:
    - # atom 1
      - [ -0.00000000000000,  0.00000000000000 ]
      - [ -0.70575988576706, -0.04362320073156 ]
      - [  0.00000000000001, -0.00000000000000 ]
    - # atom 2
      - [ -0.00000000000000, -0.00000000000000 ]
      - [ -0.70575988576706, -0.04362320073156 ]
      - [  0.00000000000001, -0.00000000000000 ]
  - # 4
    frequency:   14.8998335994
    eigenvector:
    - # atom 1
      - [ -0.08709022728596,  0.00000000000000 ]
      - [ -0.00000000000010, -0.00000000000007 ]
      - [  0.40371831287206,  0.57395715533742 ]
    - # atom 2
      - [  0.02382686768758,  0.04413199360540 ]
      - [  0.00000000000010,  0.00000000000007 ]
      - [ -0.40129894503808, -0.58003776103624 ]
  - # 5
    frequency:   14.8998335994
    eigenvector:
    - # atom 1
      - [  0.70172308805631,  0.00000000000000 ]
      - [  0.00000000000000, -0.00000000000001 ]
      - [  0.05010512013353,  0.07123331120427 ]
    - # atom 2
      - [ -0.70530464906271,  0.00547718240870 ]
      - [ -0.00000000000000,  0.00000000000001 ]
      - [ -0.04980485454709,  0.00590160545374 ]
  - # 6
    frequency:   14.9103560969
    eigenvector: