phonopy:
  version: "2.38.0"
  frequency_unit_conversion_factor: 15.633302
  symmetry_tolerance: 1.00000e-05

space_group:
  type: "Fd-3m"
  number: 227
  Hall_symbol: "F 4d 2 3 -1d"

primitive_matrix:
- [  1.000000000000000,  0.000000000000000,  0.000000000000000 ]
- [  0.000000000000000,  1.000000000000000,  0.000000000000000 ]
- [  0.000000000000000,  0.000000000000000,  1.000000000000000 ]

supercell_matrix:
- [   4,   0,   0 ]
- [   0,   4,   0 ]
- [   0,   0,   4 ]

primitive_cell:
  lattice:
  - [     0.000000000000000,     2.715000000000000,     2.715000000000000 ] # a
  - [     2.715000000000000,     0.000000000000000,     2.715000000000000 ] # b
  - [     2.715000000000000,     2.715000000000000,     0.000000000000000 ] # c
  points:
  - symbol: Si # 1
    coordinates: [  0.000000000000000,  0.000000000000000,  0.000000000000000 ]
    mass: 28.085000
  - symbol: Si # 2
    coordinates: [  0.250000000000000,  0.250000000000000,  0.250000000000000 ]
    mass: 28.085000
  reciprocal_lattice: # without 2pi
  - [    -0.184162062615101,     0.184162062615101,     0.184162062615101 ] # a*
  - [     0.184162062615101,    -0.184162062615101,     0.184162062615101 ] # b*
  - [     0.184162062615101,     0.184162062615101,    -0.184162062615101 ] # c*

unit_cell:
  lattice:
  - [     0.000000000000000,     2.715000000000000,     2.715000000000000 ] # a
  - [     2.715000000000000,     0.000000000000000,     2.715000000000000 ] # b
  - [     2.715000000000000,     2.715000000000000,     0.000000000000000 ] # c
  points:
  - symbol: Si # 1
    coordinates: [  0.000000000000000,  0.000000000000000,  0.000000000000000 ]
    mass: 28.085000
    reduced_to: 1
  - symbol: Si # 2
    coordinates: [  0.250000000000000,  0.250000000000000,  0.250000000000000 ]
    mass: 28.085000
    reduced_to: 2

supercell:
  lattice:
  - [     0.000000000000000,    10.859999999999999,    10.859999999999999 ] # a
  - [    10.859999999999999,     0.000000000000000,    10.859999999999999 ] # b
  - [    10.859999999999999,    10.859999999999999,     0.000000000000000 ] # c
  points:
  - symbol: Si # 1
    coordinates: [  0.000000000000000,  0.000000000000000,  0.000000000000000 ]
    mass: 28.085000
    reduced_to: 1
  - symbol: Si # 2
    coordinates: [  0.250000000000000,  0.000000000000000,  0.000000000000000 ]
    mass: 28.085000
    reduced_to: 1
  - symbol: Si # 3
    coordinates: [  0.500000000000000,  0.000000000000000,  0.000000000000000 ]
    mass: 28.085000
    reduced_to: 1
  - symbol: Si # 4
    coordinates: [  0.750000000000000,  0.000000000000000,  0.000000000000000 ]
    mass: 28.085000
    reduced_to: 1
  - symbol: Si # 5
    coordinates: [  0.000000000000000,  0.250000000000000,  0.000000000000000 ]
    mass: 28.085000
    reduced_to: 1
  - symbol: Si # 6
    coordinates: [  0.250000000000000,  0.250000000000000,  0.000000000000000 ]
    mass: 28.085000
    reduced_to: 1
  - symbol: Si # 7
    coordinates: [  0.500000000000000,  0.250000000000000,  0.000000000000000 ]
    mass: 28.085000
    reduced_to: 1
  - symbol: Si # 8
    coordinates: [  0.750000000000000,  0.250000000000000,  0.000000000000000 ]
    mass: 28.085000
    reduced_to: 1
  - symbol: Si # 9
    coordinates: [  0.000000000000000,  0.500000000000000,  0.000000000000000 ]
    mass: 28.085000
    reduced_to: 1
  - symbol: Si # 10
    coordinates: [  0.250000000000000,  0.500000000000000,  0.000000000000000 ]
    mass: 28.085000
    reduced_to: 1
  - symbol: Si # 11
    coordinates: [  0.500000000000000,  0.500000000000000,  0.000000000000000 ]
    mass: 28.085000
    reduced_to: 1
  - symbol: Si # 12
    coordinates: [  0.750000000000000,  0.500000000000000,  0.000000000000000 ]
    mass: 28.085000
    reduced_to: 1
  - symbol: Si # 13
    coordinates: [  0.000000000000000,  0.750000000000000,  0.000000000000000 ]
    mass: 28.085000
    reduced_to: 1
  - symbol: Si # 14
    coordinates: [  0.250000000000000,  0.750000000000000,  0.000000000000000 ]
    mass: 28.085000
    reduced_to: 1
  - symbol: Si # 15
    coordinates: [  0.500000000000000,  0.750000000000000,  0.000000000000000 ]
    mass: 28.085000
    reduced_to: 1
  - symbol: Si # 16
    coordinates: [  0.750000000000000,  0.750000000000000,  0.000000000000000 ]
    mass: 28.085000
    reduced_to: 1
  - symbol: Si # 17
    coordinates: [  0.000000000000000,  0.000000000000000,  0.250000000000000 ]
    mass: 28.085000
    reduced_to: 1
  - symbol: Si # 18
    coordinates: [  0.250000000000000,  0.000000000000000,  0.250000000000000 ]
    mass: 28.085000
    reduced_to: 1
  - symbol: Si # 19
    coordinates: [  0.500000000000000,  0.000000000000000,  0.250000000000000 ]
    mass: 28.085000
    reduced_to: 1
  - symbol: Si # 20
    coordinates: [  0.750000000000000,  0.000000000000000,  0.250000000000000 ]
    mass: 28.085000
    reduced_to: 1
  - symbol: Si # 21
    coordinates: [  0.000000000000000,  0.250000000000000,  0.250000000000000 ]
    mass: 28.085000
    reduced_to: 1
  - symbol: Si # 22
    coordinates: [  0.250000000000000,  0.250000000000000,  0.250000000000000 ]
    mass: 28.085000
    reduced_to: 1
  - symbol: Si # 23
    coordinates: [  0.500000000000000,  0.250000000000000,  0.250000000000000 ]
    mass: 28.085000
    reduced_to: 1
  - symbol: Si # 24
    coordinates: [  0.750000000000000,  0.250000000000000,  0.250000000000000 ]
    mass: 28.085000
    reduced_to: 1
  - symbol: Si # 25
    coordinates: [  0.000000000000000,  0.500000000000000,  0.250000000000000 ]
    mass: 28.085000
    reduced_to: 1
  - symbol: Si # 26
    coordinates: [  0.250000000000000,  0.500000000000000,  0.250000000000000 ]
    mass: 28.085000
    reduced_to: 1
  - symbol: Si # 27
    coordinates: [  0.500000000000000,  0.500000000000000,  0.250000000000000 ]
    mass: 28.085000
    reduced_to: 1
  - symbol: Si # 28
    coordinates: [  0.750000000000000,  0.500000000000000,  0.250000000000000 ]
    mass: 28.085000
    reduced_to: 1
  - symbol: Si # 29
    coordinates: [  0.000000000000000,  0.750000000000000,  0.250000000000000 ]
    mass: 28.085000
    reduced_to: 1
  - symbol: Si # 30
    coordinates: [  0.250000000000000,  0.750000000000000,  0.250000000000000 ]
    mass: 28.085000
    reduced_to: 1
  - symbol: Si # 31
    coordinates: [  0.500000000000000,  0.750000000000000,  0.250000000000000 ]
    mass: 28.085000
    reduced_to: 1
  - symbol: Si # 32
    coordinates: [  0.750000000000000,  0.750000000000000,  0.250000000000000 ]
    mass: 28.085000
    reduced_to: 1
  - symbol: Si # 33
    coordinates: [  0.000000000000000,  0.000000000000000,  0.500000000000000 ]
    mass: 28.085000
    reduced_to: 1
  - symbol: Si # 34
    coordinates: [  0.250000000000000,  0.000000000000000,  0.500000000000000 ]
    mass: 28.085000
    reduced_to: 1
  - symbol: Si # 35
    coordinates: [  0.500000000000000,  0.000000000000000,  0.500000000000000 ]
    mass: 28.085000
    reduced_to: 1
  - symbol: Si # 36
    coordinates: [  0.750000000000000,  0.000000000000000,  0.500000000000000 ]
    mass: 28.085000
    reduced_to: 1
  - symbol: Si # 37
    coordinates: [  0.000000000000000,  0.250000000000000,  0.500000000000000 ]
    mass: 28.085000
    reduced_to: 1
  - symbol: Si # 38
    coordinates: [  0.250000000000000,  0.250000000000000,  0.500000000000000 ]
    mass: 28.085000
    reduced_to: 1
  - symbol: Si # 39
    coordinates: [  0.500000000000000,  0.250000000000000,  0.500000000000000 ]
    mass: 28.085000
    reduced_to: 1
  - symbol: Si # 40
    coordinates: [  0.750000000000000,  0.250000000000000,  0.500000000000000 ]
    mass: 28.085000
    reduced_to: 1
  - symbol: Si # 41
    coordinates: [  0.000000000000000,  0.500000000000000,  0.500000000000000 ]
    mass: 28.085000
    reduced_to: 1
  - symbol: Si # 42
    coordinates: [  0.250000000000000,  0.500000000000000,  0.500000000000000 ]
    mass: 28.085000
    reduced_to: 1
  - symbol: Si # 43
    coordinates: [  0.500000000000000,  0.500000000000000,  0.500000000000000 ]
    mass: 28.085000
    reduced_to: 1
  - symbol: Si # 44
    coordinates: [  0.750000000000000,  0.500000000000000,  0.500000000000000 ]
    mass: 28.085000
    reduced_to: 1
  - symbol: Si # 45
    coordinates: [  0.000000000000000,  0.750000000000000,  0.500000000000000 ]
    mass: 28.085000
    reduced_to: 1
  - symbol: Si # 46
    coordinates: [  0.250000000000000,  0.750000000000000,  0.500000000000000 ]
    mass: 28.085000
    reduced_to: 1
  - symbol: Si # 47
    coordinates: [  0.500000000000000,  0.750000000000000,  0.500000000000000 ]
    mass: 28.085000
    reduced_to: 1
  - symbol: Si # 48
    coordinates: [  0.750000000000000,  0.750000000000000,  0.500000000000000 ]
    mass: 28.085000
    reduced_to: 1
  - symbol: Si # 49
    coordinates: [  0.000000000000000,  0.000000000000000,  0.750000000000000 ]
    mass: 28.085000
    reduced_to: 1
  - symbol: Si # 50
    coordinates: [  0.250000000000000,  0.000000000000000,  0.750000000000000 ]
    mass: 28.085000
    reduced_to: 1
  - symbol: Si # 51
    coordinates: [  0.500000000000000,  0.000000000000000,  0.750000000000000 ]
    mass: 28.085000
    reduced_to: 1
  - symbol: Si # 52
    coordinates: [  0.750000000000000,  0.000000000000000,  0.750000000000000 ]
    mass: 28.085000
    reduced_to: 1
  - symbol: Si # 53
    coordinates: [  0.000000000000000,  0.250000000000000,  0.750000000000000 ]
    mass: 28.085000
    reduced_to: 1
  - symbol: Si # 54
    coordinates: [  0.250000000000000,  0.250000000000000,  0.750000000000000 ]
    mass: 28.085000
    reduced_to: 1
  - symbol: Si # 55
    coordinates: [  0.500000000000000,  0.250000000000000,  0.750000000000000 ]
    mass: 28.085000
    reduced_to: 1
  - symbol: Si # 56
    coordinates: [  0.750000000000000,  0.250000000000000,  0.750000000000000 ]
    mass: 28.085000
    reduced_to: 1
  - symbol: Si # 57
    coordinates: [  0.000000000000000,  0.500000000000000,  0.750000000000000 ]
    mass: 28.085000
    reduced_to: 1
  - symbol: Si # 58
    coordinates: [  0.250000000000000,  0.500000000000000,  0.750000000000000 ]
    mass: 28.085000
    reduced_to: 1
  - symbol: Si # 59
    coordinates: [  0.500000000000000,  0.500000000000000,  0.750000000000000 ]
    mass: 28.085000
    reduced_to: 1
  - symbol: Si # 60
    coordinates: [  0.750000000000000,  0.500000000000000,  0.750000000000000 ]
    mass: 28.085000
    reduced_to: 1
  - symbol: Si # 61
    coordinates: [  0.000000000000000,  0.750000000000000,  0.750000000000000 ]
    mass: 28.085000
    reduced_to: 1
  - symbol: Si # 62
    coordinates: [  0.250000000000000,  0.750000000000000,  0.750000000000000 ]
    mass: 28.085000
    reduced_to: 1
  - symbol: Si # 63
    coordinates: [  0.500000000000000,  0.750000000000000,  0.750000000000000 ]
    mass: 28.085000
    reduced_to: 1
  - symbol: Si # 64
    coordinates: [  0.750000000000000,  0.750000000000000,  0.750000000000000 ]
    mass: 28.085000
    reduced_to: 1
  - symbol: Si # 65
    coordinates: [  0.062500000000000,  0.062500000000000,  0.062500000000000 ]
    mass: 28.085000
    reduced_to: 65
  - symbol: Si # 66
    coordinates: [  0.312500000000000,  0.062500000000000,  0.062500000000000 ]
    mass: 28.085000
    reduced_to: 65
  - symbol: Si # 67
    coordinates: [  0.562500000000000,  0.062500000000000,  0.062500000000000 ]
    mass: 28.085000
    reduced_to: 65
  - symbol: Si # 68
    coordinates: [  0.812500000000000,  0.062500000000000,  0.062500000000000 ]
    mass: 28.085000
    reduced_to: 65
  - symbol: Si # 69
    coordinates: [  0.062500000000000,  0.312500000000000,  0.062500000000000 ]
    mass: 28.085000
    reduced_to: 65
  - symbol: Si # 70
    coordinates: [  0.312500000000000,  0.312500000000000,  0.062500000000000 ]
    mass: 28.085000
    reduced_to: 65
  - symbol: Si # 71
    coordinates: [  0.562500000000000,  0.312500000000000,  0.062500000000000 ]
    mass: 28.085000
    reduced_to: 65
  - symbol: Si # 72
    coordinates: [  0.812500000000000,  0.312500000000000,  0.062500000000000 ]
    mass: 28.085000
    reduced_to: 65
  - symbol: Si # 73
    coordinates: [  0.062500000000000,  0.562500000000000,  0.062500000000000 ]
    mass: 28.085000
    reduced_to: 65
  - symbol: Si # 74
    coordinates: [  0.312500000000000,  0.562500000000000,  0.062500000000000 ]
    mass: 28.085000
    reduced_to: 65
  - symbol: Si # 75
    coordinates: [  0.562500000000000,  0.562500000000000,  0.062500000000000 ]
    mass: 28.085000
    reduced_to: 65
  - symbol: Si # 76
    coordinates: [  0.812500000000000,  0.562500000000000,  0.062500000000000 ]
    mass: 28.085000
    reduced_to: 65
  - symbol: Si # 77
    coordinates: [  0.062500000000000,  0.812500000000000,  0.062500000000000 ]
    mass: 28.085000
    reduced_to: 65
  - symbol: Si # 78
    coordinates: [  0.312500000000000,  0.812500000000000,  0.062500000000000 ]
    mass: 28.085000
    reduced_to: 65
  - symbol: Si # 79
    coordinates: [  0.562500000000000,  0.812500000000000,  0.062500000000000 ]
    mass: 28.085000
    reduced_to: 65
  - symbol: Si # 80
    coordinates: [  0.812500000000000,  0.812500000000000,  0.062500000000000 ]
    mass: 28.085000
    reduced_to: 65
  - symbol: Si # 81
    coordinates: [  0.062500000000000,  0.062500000000000,  0.312500000000000 ]
    mass: 28.085000
    reduced_to: 65
  - symbol: Si # 82
    coordinates: [  0.312500000000000,  0.062500000000000,  0.312500000000000 ]
    mass: 28.085000
    reduced_to: 65
  - symbol: Si # 83
    coordinates: [  0.562500000000000,  0.062500000000000,  0.312500000000000 ]
    mass: 28.085000
    reduced_to: 65
  - symbol: Si # 84
    coordinates: [  0.812500000000000,  0.062500000000000,  0.312500000000000 ]
    mass: 28.085000
    reduced_to: 65
  - symbol: Si # 85
    coordinates: [  0.062500000000000,  0.312500000000000,  0.312500000000000 ]
    mass: 28.085000
    reduced_to: 65
  - symbol: Si # 86
    coordinates: [  0.312500000000000,  0.312500000000000,  0.312500000000000 ]
    mass: 28.085000
    reduced_to: 65
  - symbol: Si # 87
    coordinates: [  0.562500000000000,  0.312500000000000,  0.312500000000000 ]
    mass: 28.085000
    reduced_to: 65
  - symbol: Si # 88
    coordinates: [  0.812500000000000,  0.312500000000000,  0.312500000000000 ]
    mass: 28.085000
    reduced_to: 65
  - symbol: Si # 89
    coordinates: [  0.062500000000000,  0.562500000000000,  0.312500000000000 ]
    mass: 28.085000
    reduced_to: 65
  - symbol: Si # 90
    coordinates: [  0.312500000000000,  0.562500000000000,  0.312500000000000 ]
    mass: 28.085000
    reduced_to: 65
  - symbol: Si # 91
    coordinates: [  0.562500000000000,  0.562500000000000,  0.312500000000000 ]
    mass: 28.085000
    reduced_to: 65
  - symbol: Si # 92
    coordinates: [  0.812500000000000,  0.562500000000000,  0.312500000000000 ]
    mass: 28.085000
    reduced_to: 65
  - symbol: Si # 93
    coordinates: [  0.062500000000000,  0.812500000000000,  0.312500000000000 ]
    mass: 28.085000
    reduced_to: 65
  - symbol: Si # 94
    coordinates: [  0.312500000000000,  0.812500000000000,  0.312500000000000 ]
    mass: 28.085000
    reduced_to: 65
  - symbol: Si # 95
    coordinates: [  0.562500000000000,  0.812500000000000,  0.312500000000000 ]
    mass: 28.085000
    reduced_to: 65
  - symbol: Si # 96
    coordinates: [  0.812500000000000,  0.812500000000000,  0.312500000000000 ]
    mass: 28.085000
    reduced_to: 65
  - symbol: Si # 97
    coordinates: [  0.062500000000000,  0.062500000000000,  0.562500000000000 ]
    mass: 28.085000
    reduced_to: 65
  - symbol: Si # 98
    coordinates: [  0.312500000000000,  0.062500000000000,  0.562500000000000 ]
    mass: 28.085000
    reduced_to: 65
  - symbol: Si # 99
    coordinates: [  0.562500000000000,  0.062500000000000,  0.562500000000000 ]
    mass: 28.085000
    reduced_to: 65
  - symbol: Si # 100
    coordinates: [  0.812500000000000,  0.062500000000000,  0.562500000000000 ]
    mass: 28.085000
    reduced_to: 65
  - symbol: Si # 101
    coordinates: [  0.062500000000000,  0.312500000000000,  0.562500000000000 ]
    mass: 28.085000
    reduced_to: 65
  - symbol: Si # 102
    coordinates: [  0.312500000000000,  0.312500000000000,  0.562500000000000 ]
    mass: 28.085000
    reduced_to: 65
  - symbol: Si # 103
    coordinates: [  0.562500000000000,  0.312500000000000,  0.562500000000000 ]
    mass: 28.085000
    reduced_to: 65
  - symbol: Si # 104
    coordinates: [  0.812500000000000,  0.312500000000000,  0.562500000000000 ]
    mass: 28.085000
    reduced_to: 65
  - symbol: Si # 105
    coordinates: [  0.062500000000000,  0.562500000000000,  0.562500000000000 ]
    mass: 28.085000
    reduced_to: 65
  - symbol: Si # 106
    coordinates: [  0.312500000000000,  0.562500000000000,  0.562500000000000 ]
    mass: 28.085000
    reduced_to: 65
  - symbol: Si # 107
    coordinates: [  0.562500000000000,  0.562500000000000,  0.562500000000000 ]
    mass: 28.085000
    reduced_to: 65
  - symbol: Si # 108
    coordinates: [  0.812500000000000,  0.562500000000000,  0.562500000000000 ]
    mass: 28.085000
    reduced_to: 65
  - symbol: Si # 109
    coordinates: [  0.062500000000000,  0.812500000000000,  0.562500000000000 ]
    mass: 28.085000
    reduced_to: 65
  - symbol: Si # 110
    coordinates: [  0.312500000000000,  0.812500000000000,  0.562500000000000 ]
    mass: 28.085000
    reduced_to: 65
  - symbol: Si # 111
    coordinates: [  0.562500000000000,  0.812500000000000,  0.562500000000000 ]
    mass: 28.085000
    reduced_to: 65
  - symbol: Si # 112
    coordinates: [  0.812500000000000,  0.812500000000000,  0.562500000000000 ]
    mass: 28.085000
    reduced_to: 65
  - symbol: Si # 113
    coordinates: [  0.062500000000000,  0.062500000000000,  0.812500000000000 ]
    mass: 28.085000
    reduced_to: 65
  - symbol: Si # 114
    coordinates: [  0.312500000000000,  0.062500000000000,  0.812500000000000 ]
    mass: 28.085000
    reduced_to: 65
  - symbol: Si # 115
    coordinates: [  0.562500000000000,  0.062500000000000,  0.812500000000000 ]
    mass: 28.085000
    reduced_to: 65
  - symbol: Si # 116
    coordinates: [  0.812500000000000,  0.062500000000000,  0.812500000000000 ]
    mass: 28.085000
    reduced_to: 65
  - symbol: Si # 117
    coordinates: [  0.062500000000000,  0.312500000000000,  0.812500000000000 ]
    mass: 28.085000
    reduced_to: 65
  - symbol: Si # 118
    coordinates: [  0.312500000000000,  0.312500000000000,  0.812500000000000 ]
    mass: 28.085000
    reduced_to: 65
  - symbol: Si # 119
    coordinates: [  0.562500000000000,  0.312500000000000,  0.812500000000000 ]
    mass: 28.085000
    reduced_to: 65
  - symbol: Si # 120
    coordinates: [  0.812500000000000,  0.312500000000000,  0.812500000000000 ]
    mass: 28.085000
    reduced_to: 65
  - symbol: Si # 121
    coordinates: [  0.062500000000000,  0.562500000000000,  0.812500000000000 ]
    mass: 28.085000
    reduced_to: 65
  - symbol: Si # 122
    coordinates: [  0.312500000000000,  0.562500000000000,  0.812500000000000 ]
    mass: 28.085000
    reduced_to: 65
  - symbol: Si # 123
    coordinates: [  0.562500000000000,  0.562500000000000,  0.812500000000000 ]
    mass: 28.085000
    reduced_to: 65
  - symbol: Si # 124
    coordinates: [  0.812500000000000,  0.562500000000000,  0.812500000000000 ]
    mass: 28.085000
    reduced_to: 65
  - symbol: Si # 125
    coordinates: [  0.062500000000000,  0.812500000000000,  0.812500000000000 ]
    mass: 28.085000
    reduced_to: 65
  - symbol: Si # 126
    coordinates: [  0.312500000000000,  0.812500000000000,  0.812500000000000 ]
    mass: 28.085000
    reduced_to: 65
  - symbol: Si # 127
    coordinates: [  0.562500000000000,  0.812500000000000,  0.812500000000000 ]
    mass: 28.085000
    reduced_to: 65
  - symbol: Si # 128
    coordinates: [  0.812500000000000,  0.812500000000000,  0.812500000000000 ]
    mass: 28.085000
    reduced_to: 65

displacements:
- atom:    1
  displacement:
    [   0.0000000000000000,  0.0070710678118655,  0.0070710678118655 ]
  forces:
  - [  -0.0016319749411196, -0.0933478847146034, -0.0933502987027168 ]
  - [   0.0000626058317721,  0.0027027034666389,  0.0027008720207959 ]
  - [   0.0000023858156055,  0.0000787047029007,  0.0000782079296187 ]
  - [  -0.0000128087121993,  0.0026801312342286,  0.0026795647572726 ]
  - [   0.0013496824540198, -0.0018961528548971,  0.0012901227455586 ]
  - [  -0.0000278041698039, -0.0000248029828072, -0.0000112090201583 ]
  - [   0.0000354885123670, -0.0000040670856833, -0.0000359551049769 ]
  - [  -0.0013789379736409,  0.0013023425126448, -0.0019120464567095 ]
  - [   0.0000461559975520, -0.0000390047207475,  0.0000361583515769 ]
  - [   0.0000045137712732,  0.0000096708536148, -0.0000090126413852 ]
  - [  -0.0000385024468414,  0.0000380093697459, -0.0000430459622294 ]
  - [   0.0000084349594545, -0.0000110144028440,  0.0000082170590758 ]
  - [   0.0013685065787286, -0.0019369319779798,  0.0013125963741913 ]
  - [  -0.0014177791308612,  0.0013395309215412, -0.0019449500832707 ]
  - [   0.0000058810692281, -0.0000107585219666, -0.0000118301250041 ]
  - [  -0.0000343583524227, -0.0000301152467728, -0.0000325694272760 ]
  - [   0.0013471940765157,  0.0012903040042147, -0.0018946020863950 ]
  - [  -0.0000287627335638, -0.0000115993752843, -0.0000254822662100 ]
  - [   0.0000343942083418, -0.0000378440599889, -0.0000041044113459 ]
  - [  -0.0013792744139209, -0.0019125218968838,  0.0013049207627773 ]
  - [  -0.0000042547326302, -0.0000318856909871, -0.0000330148031935 ]
  - [   0.0000046496570576,  0.0000089611858130,  0.0000088589731604 ]
  - [   0.0000039676669985, -0.0000406934414059, -0.0000403218436986 ]
  - [   0.0000057327561080,  0.0000644750107313,  0.0000663901446387 ]
  - [  -0.0000039781443775,  0.0000020702136680, -0.0000018503051251 ]
  - [  -0.0000153074506670, -0.0000065673084464, -0.0000138257164508 ]
  - [  -0.0000215575564653, -0.0000024329638109, -0.0000037595309550 ]
  - [  -0.0000051041133702, -0.0000004849571269,  0.0000089540844783 ]
  - [  -0.0000039728765842, -0.0000649146968499, -0.0000655801268294 ]
  - [   0.0000056908756960, -0.0001039974158630,  0.0000678063370287 ]
  - [   0.0000025175104383,  0.0000089353416115,  0.0000148053513840 ]
  - [   0.0000039695296437,  0.0000654059695080, -0.0001214367512148 ]
  - [   0.0000469029182568,  0.0000340545957442, -0.0000390110071748 ]
  - [   0.0000056708086049, -0.0000086617656052,  0.0000081362668425 ]
  - [  -0.0000367632310372, -0.0000430981162935,  0.0000389958731830 ]
  - [   0.0000090073153842,  0.0000080091413110, -0.0000115538714454 ]
  - [  -0.0000044023618102, -0.0000028283102438,  0.0000016948906705 ]
  - [  -0.0000159032642841, -0.0000121000921354, -0.0000043431209633 ]
  - [  -0.0000206443946809, -0.0000031751987990, -0.0000019944272935 ]
  - [  -0.0000065290369093,  0.0000087269581854, -0.0000007559428923 ]
  - [  -0.0000017026904970, -0.0000055431446526, -0.0000045612687245 ]
  - [  -0.0000042390747694, -0.0000114181311801, -0.0000102223129943 ]
  - [   0.0000040752784116,  0.0000048219226301,  0.0000055263517424 ]
  - [   0.0000083242484834,  0.0000015067635104,  0.0000015966361389 ]
  - [   0.0000209307763726,  0.0000114725698950, -0.0000263614347205 ]
  - [   0.0000035162083805,  0.0000003938330337,  0.0000028571230359 ]
  - [  -0.0000123467762023,  0.0000052438699640,  0.0000066503416747 ]
  - [  -0.0000182553194463, -0.0000150679843500, -0.0000103453639895 ]
  - [   0.0013688490726054,  0.0013119733193889, -0.0019374854164198 ]
  - [  -0.0014185402542353, -0.0019430633401498,  0.0013424787903205 ]
  - [   0.0000055700074881, -0.0000120871700346, -0.0000121217162814 ]
  - [  -0.0000336486846209, -0.0000304180575768, -0.0000282246619463 ]
  - [  -0.0000031882373150, -0.0000659488141537, -0.0000652638264000 ]
  - [   0.0000050389207900,  0.0000665774568915, -0.0001036645844579 ]
  - [   0.0000033096875995,  0.0000147990649566,  0.0000082164769992 ]
  - [   0.0000031088711694, -0.0001211216440424,  0.0000638202764094 ]
  - [   0.0000213324092329, -0.0000272318720818,  0.0000106774969026 ]
  - [   0.0000045464839786,  0.0000018927967176, -0.0000014480901882 ]
  - [  -0.0000130461994559,  0.0000084784114733,  0.0000052110699471 ]
  - [  -0.0000161426141858, -0.0000096677831607, -0.0000133885769174 ]
  - [  -0.0000342172570527, -0.0000479441368952, -0.0000484467018396 ]
  - [  -0.0000149423722178,  0.0000648434506729,  0.0000645545078442 ]
  - [   0.0000073134433478, -0.0000313639175147, -0.0000339888501912 ]
  - [  -0.0000204229727387, -0.0000154707813635, -0.0000156959285960 ]
  - [   0.0294038150459528,  0.0372411087155342,  0.0372401475906372 ]
  - [  -0.0002367185952608, -0.0002269793767482, -0.0002270370023325 ]
  - [   0.0002275818551425, -0.0002244350034744, -0.0002227781806141 ]
  - [  -0.0279606245458126,  0.0360939912497997,  0.0360932461917400 ]
  - [  -0.0002375389303779, -0.0001685817260295, -0.0002246067160740 ]
  - [  -0.0000059582671383,  0.0000011924421415,  0.0000131188426167 ]
  - [   0.0002306210808456, -0.0002226412761956, -0.0001645764568821 ]
  - [  -0.0000097140000435,  0.0002217994770035,  0.0002098260447383 ]
  - [  -0.0000011674710549,  0.0000596406171098,  0.0000123992795125 ]
  - [   0.0000029824441299,  0.0000073940027505,  0.0000702051911503 ]
  - [   0.0000070020905696, -0.0000062229810283, -0.0000046696513891 ]
  - [  -0.0000000820728019, -0.0000027945498005, -0.0000116992741823 ]
  - [   0.0001580369425938,  0.0079116076231003,  0.0080642504617572 ]
  - [  -0.0000852583907545,  0.0004492484731600,  0.0002972260117531 ]
  - [   0.0000014447141439, -0.0000114350259537, -0.0000150908017531 ]
  - [   0.0000908245565370,  0.0003121476038359,  0.0004655067168642 ]
  - [  -0.0002383421087870, -0.0002251188270748, -0.0001685400493443 ]
  - [  -0.0000038069265429,  0.0000137584283948,  0.0000026654452085 ]
  - [   0.0002321396168554, -0.0001658677356318, -0.0002235262654722 ]
  - [  -0.0000110405089799,  0.0002113727387041,  0.0002218810841441 ]
  - [   0.0000064042396843, -0.0000004140892997,  0.0000012030359358 ]
  - [  -0.0000002884771675,  0.0000062639592215,  0.0000072042021202 ]
  - [   0.0000007112976164, -0.0000005266629159,  0.0000011516676750 ]
  - [   0.0000090776011348, -0.0000088907545432, -0.0000076818250818 ]
  - [   0.0000050723319873,  0.0000092140398920,  0.0000124601647258 ]
  - [  -0.0000002784654498,  0.0000021937303245,  0.0000019738217816 ]
  - [   0.0000076445285231,  0.0000021050218493,  0.0000035867706174 ]
  - [   0.0000190018909052, -0.0000086110085249, -0.0000045493507059 ]
  - [   0.0001930533908308,  0.0001513349416200,  0.0000219218200073 ]
  - [  -0.0000075779389590,  0.0000025298213586,  0.0000000821019057 ]
  - [  -0.0000029876828194,  0.0000124548096210,  0.0000015807745513 ]
  - [  -0.0002000872045755,  0.0000155777670443,  0.0001788576919353 ]
  - [   0.0000005775364116,  0.0000145194353536,  0.0000597005710006 ]
  - [   0.0000016982667148,  0.0000705177662894,  0.0000061326427385 ]
  - [   0.0000076190772234, -0.0000036490382627, -0.0000068027293310 ]
  - [  -0.0000003415771062, -0.0000119351316243, -0.0000039826845750 ]
  - [   0.0000036904821172,  0.0000110909168143,  0.0000086562940851 ]
  - [  -0.0000002578599378,  0.0000029570655897,  0.0000013157114154 ]
  - [   0.0000086503569037,  0.0000029208604246,  0.0000036878482206 ]
  - [   0.0000200747745112, -0.0000045710476115, -0.0000087631924544 ]
  - [  -0.0000092631671578,  0.0000044337357394,  0.0000062739709392 ]
  - [   0.0000035851262510,  0.0000046881614253,  0.0000045678898459 ]
  - [   0.0000015257392079, -0.0000006370246410, -0.0000006083573680 ]
  - [   0.0000108317472041, -0.0000018182909116, -0.0000020625593606 ]
  - [  -0.0000111806439236,  0.0000003763416316,  0.0000030200462788 ]
  - [   0.0000004398170859,  0.0000163572840393,  0.0000000258442014 ]
  - [   0.0000095149734989,  0.0000036281999201, -0.0000061636237660 ]
  - [   0.0000071197282523,  0.0000042624305934,  0.0000086066429503 ]
  - [   0.0001552560133860,  0.0080656046047807,  0.0079122995957732 ]
  - [  -0.0000863912282512,  0.0002973331138492,  0.0004491048748605 ]
  - [   0.0000012238742784, -0.0000164808006957, -0.0000119832984637 ]
  - [   0.0000897225108929,  0.0004645550216082,  0.0003104194765911 ]
  - [   0.0001934529282153,  0.0000222980743274,  0.0001528100110590 ]
  - [  -0.0000043625477701, -0.0000000272848411,  0.0000014404067770 ]
  - [  -0.0000023825559765,  0.0000003066961654,  0.0000131733249873 ]
  - [  -0.0001996173523366,  0.0001785816566553,  0.0000138950999826 ]
  - [  -0.0000119917094707,  0.0000039405422285, -0.0000001222651917 ]
  - [   0.0000017969869077, -0.0000010086223483,  0.0000144863734022 ]
  - [   0.0000088582746685, -0.0000049419177230,  0.0000058629084378 ]
  - [   0.0000069119269028,  0.0000081041071098,  0.0000036078272387 ]
  - [   0.0003104550996795,  0.0001112419413403,  0.0001118691870943 ]
  - [  -0.0002705632941797,  0.0001025963574648,  0.0001032054424286 ]
  - [   0.0000271862954833, -0.0000125376973301, -0.0000127452658489 ]
  - [   0.0000023973698262,  0.0000006668269634, -0.0000006959598977 ]

force_constants:
  format: "full"
  shape: [ 128, 128 ]
  elements:
  - # (1, 1)
    - [    13.201555172301235,    -0.000000000000001,    -0.000000000000000 ]