nqpoint: 467    
npath: 6      
segment_nqpoint:
- 101
- 71
- 71
- 87
- 87
- 50
labels:
- [ '$\Gamma$', '$\mathrm{H}$' ]
- [ '$\mathrm{H}$', '$\mathrm{N}$' ]
- [ '$\mathrm{N}$', '$\Gamma$' ]
- [ '$\Gamma$', '$\mathrm{P}$' ]
- [ '$\mathrm{P}$', '$\mathrm{H}$' ]
- [ '$\mathrm{P}$', '$\mathrm{N}$' ]
reciprocal_lattice:
- [  -0.00000000,   0.25000000,   0.25000000 ] # a*
- [   0.25000000,   0.00000000,   0.25000000 ] # b*
- [   0.25000000,   0.25000000,   0.00000000 ] # c*
natom: 1      
lattice:
- [    -2.000000000000000,     2.000000000000000,     2.000000000000000 ] # a
- [     2.000000000000000,    -2.000000000000000,     2.000000000000000 ] # b
- [     2.000000000000000,     2.000000000000000,    -2.000000000000000 ] # c
points:
- symbol: Fe # 1
  coordinates: [  0.000000000000000,  0.000000000000000,  0.000000000000000 ]
  mass: 55.845000

phonon:
- q-position: [    0.0000000,    0.0000000,    0.0000000 ]
  distance:    0.0000000
  band:
  - # 1
    frequency:   -0.0000000787
    eigenvector:
    - # atom 1
      - [  0.00000000000000,  0.00000000000000 ]
      - [  0.00000000000000,  0.00000000000000 ]
      - [  1.00000000000000,  0.00000000000000 ]
  - # 2
    frequency:    0.0000000559
    eigenvector:
    - # atom 1
      - [ -0.95709202648905,  0.00000000000000 ]
      - [ -0.28978414868843,  0.00000000000000 ]
      - [ -0.00000000000000,  0.00000000000000 ]
  - # 3
    frequency:    0.0000000597
    eigenvector:
    - # atom 1
      - [ -0.28978414868843,  0.00000000000000 ]
      - [  0.95709202648905,  0.00000000000000 ]
      - [  0.00000000000000,  0.00000000000000 ]

- q-position: [    0.0050000,   -0.0050000,    0.0050000 ]
  distance:    0.0025000
  band:
  - # 1
    frequency:   -0.0813311380
    eigenvector:
    - # atom 1
      - [ -0.00000000000074,  0.00000000000000 ]
      - [ -0.99999989744147, -0.00045289850428 ]
      - [  0.00000000000000,  0.00000000000000 ]
  - # 2
    frequency:   -0.0303760128
    eigenvector:
    - # atom 1
      - [ -0.14247659678696,  0.00000000000000 ]
      - [  0.00000000000010, -0.00000000000000 ]
      - [  0.98972085210538, -0.01237151065133 ]
  - # 3
    frequency:   -0.0303760128
    eigenvector:
    - # atom 1
      - [  0.98979817102680,  0.00000000000000 ]
      - [ -0.00000000000073, -0.00000000000000 ]
      - [  0.14246546710708, -0.00178081833884 ]

- q-position: [    0.0100000,   -0.0100000,    0.0100000 ]
  distance:    0.0050000
  band:
  - # 1
    frequency:   -0.1625442859
    eigenvector:
    - # atom 1
      - [ -0.00000000000012,  0.00000000000000 ]
      - [ -0.99992524320176,  0.01222734672393 ]
      - [  0.00000000000000, -0.00000000000000 ]
  - # 2
    frequency:   -0.0607635061
    eigenvector:
    - # atom 1
      - [ -0.06580056684279,  0.00000000000000 ]
      - [  0.00000000000001,  0.00000000000000 ]
      - [  0.99780873478430, -0.00692922732489 ]
  - # 3
    frequency:   -0.0607635061
    eigenvector:
    - # atom 1
      - [  0.99783279431134,  0.00000000000000 ]
      - [ -0.00000000000012,  0.00000000000000 ]
      - [  0.06579898027385, -0.00045693736301 ]

- q-position: [    0.0150000,   -0.0150000,    0.0150000 ]
  distance:    0.0075000
  band:
  - # 1
    frequency:   -0.2435222262
    eigenvector:
    - # atom 1
      - [ -0.00000000000008,  0.00000000000000 ]
      - [ -0.99996014268916, -0.00892821555972 ]
      - [  0.00000000000001,  0.00000000000000 ]
  - # 2
    frequency:   -0.0911738562
    eigenvector:
    - # atom 1
      - [  0.01961569549954,  0.00000000000000 ]
      - [ -0.00000000000001,  0.00000000000000 ]
      - [ -0.99931976370165,  0.03122874261568 ]
  - # 3
    frequency:   -0.0911738562
    eigenvector:
    - # atom 1
      - [  0.99980759373495,  0.00000000000000 ]
      - [ -0.00000000000008, -0.00000000000000 ]
      - [  0.01960612453263, -0.00061269139164 ]

- q-position: [    0.0200000,   -0.0200000,    0.0200000 ]
  distance:    0.0100000
  band:
  - # 1
    frequency:   -0.3241492797
    eigenvector:
    - # atom 1
      - [ -0.00000000000004,  0.00000000000000 ]
      - [ -0.99999809265682, -0.00195312127472 ]
      - [  0.00000000000000,  0.00000000000000 ]
  - # 2
    frequency:   -0.1216182315
    eigenvector:
    - # atom 1
      - [ -0.67404783823817,  0.00000000000000 ]
      - [  0.00000000000003, -0.00000000000000 ]
      - [  0.73845696393676, -0.01846142409842 ]
  - # 3
    frequency:   -0.1216182315
    eigenvector:
    - # atom 1
      - [ -0.73868769569179, -0.00000000000000 ]
      - [  0.00000000000003,  0.00000000000000 ]
      - [ -0.67383729697480,  0.01684593242437 ]

- q-position: [    0.0250000,   -0.0250000,    0.0250000 ]
  distance:    0.0125000
  band:
  - # 1
    frequency:   -0.4043120564
    eigenvector:
    - # atom 1
      - [ -0.00000000000002,  0.00000000000000 ]
      - [ -0.99988288188598, -0.01530432982479 ]
      - [  0.00000000000000,  0.00000000000000 ]
  - # 2
    frequency:   -0.1521074917
    eigenvector:
    - # atom 1
      - [  0.08874151294266,  0.00000000000000 ]
      - [ -0.00000000000000,  0.00000000000000 ]
      - [ -0.99567063108476,  0.02765751753013 ]
  - # 3
    frequency:   -0.1521074917
    eigenvector:
    - # atom 1
      - [  0.99605468920168,  0.00000000000000 ]
      - [ -0.00000000000002, -0.00000000000000 ]
      - [  0.08870729604802, -0.00246409155689 ]

- q-position: [    0.0300000,   -0.0300000,    0.0300000 ]
  distance:    0.0150000
  band:
  - # 1
    frequency:   -0.4839001856
    eigenvector:
    - # atom 1
      - [ -0.00000000000002,  0.00000000000000 ]
      - [ -0.99999511722326, -0.00312498474132 ]
      - [  0.00000000000000,  0.00000000000000 ]
  - # 2
    frequency:   -0.1826520909
    eigenvector:
    - # atom 1
      - [  0.01189757423493,  0.00000000000000 ]
      - [ -0.00000000000000, -0.00000000000000 ]
      - [ -0.97007383477745, -0.24251845869436 ]
  - # 3
    frequency:   -0.1826520909
    eigenvector:
    - # atom 1
      - [  0.99992922135885,  0.00000000000000 ]
      - [ -0.00000000000002, -0.00000000000000 ]
      - [  0.01154234241394,  0.00288558560348 ]

- q-position: [    0.0350000,   -0.0350000,    0.0350000 ]
  distance:    0.0175000
  band:
  - # 1
    frequency:   -0.5628070179
    eigenvector:
    - # atom 1
      - [ -0.00000000000002,  0.00000000000000 ]
      - [ -0.99892393325237,  0.04637861118672 ]
      - [  0.00000000000000, -0.00000000000000 ]
  - # 2
    frequency:   -0.2132619839
    eigenvector:
    - # atom 1
      - [  0.04490603964148,  0.00000000000000 ]
      - [ -0.00000000000000,  0.00000000000000 ]
      - [ -0.99554045781047,  0.08296170481754 ]
  - # 3
    frequency:   -0.2132619839
    eigenvector:
    - # atom 1
      - [  0.99899121497825,  0.00000000000000 ]
      - [ -0.00000000000002,  0.00000000000000 ]
      - [  0.04475092332429, -0.00372924361036 ]

- q-position: [    0.0400000,   -0.0400000,    0.0400000 ]
  distance:    0.0200000
  band:
  - # 1
    frequency:   -0.6409302918
    eigenvector:
    - # atom 1
      - [ -0.00000000000001,  0.00000000000000 ]
      - [ -0.99974948156209,  0.02238245107975 ]
      - [ -0.00000000000000,  0.00000000000000 ]
  - # 2
    frequency:   -0.2439465399
    eigenvector:
    - # atom 1
      - [  0.01338869723265,  0.00000000000000 ]
      - [  0.00000000000000,  0.00000000000000 ]
      - [ -0.99218893624404,  0.12402361703051 ]
  - # 3
    frequency:   -0.2439465399
    eigenvector:
    - # atom 1
      - [  0.99991036737620,  0.00000000000000 ]
      - [ -0.00000000000001,  0.00000000000000 ]
      - [  0.01328530806198, -0.00166066350775 ]

- q-position: [    0.0450000,   -0.0450000,    0.0450000 ]
  distance:    0.0225000
  band:
  - # 1
    frequency:   -0.7181727593
    eigenvector:
    - # atom 1
      - [ -0.00000000000000,  0.00000000000000 ]
      - [ -0.99846035320541,  0.05547001962252 ]
      - [ -0.00000000000000,  0.00000000000000 ]
  - # 2
    frequency:   -0.2747144614
    eigenvector:
    - # atom 1
      - [  0.08933887238950,  0.00000000000000 ]
      - [ -0.00000000000000,  0.00000000000000 ]
      - [ -0.99600128809162,  0.00000000000000 ]
  - # 3
    frequency:   -0.2747144614
    eigenvector:
    - # atom 1
      - [  0.99600128809162,  0.00000000000000 ]
      - [ -0.00000000000000,  0.00000000000000 ]
      - [  0.08933887238950, -0.00000000000000 ]

- q-position: [    0.0500000,   -0.0500000,    0.0500000 ]
  distance:    0.0250000
  band:
  - # 1
    frequency:   -0.7944427623
    eigenvector:
    - # atom 1
      - [  0.00000000000001,  0.00000000000000 ]
      - [  0.99987404748360, -0.01587101662672 ]
      - [ -0.00000000000000, -0.00000000000000 ]
  - # 2
    frequency:   -0.3055737104
    eigenvector:
    - # atom 1
      - [  0.00524058866058,  0.00000000000000 ]
      - [ -0.00000000000000,  0.00000000000000 ]
      - [  0.00000000000000,  0.99998626802096 ]
  - # 3
    frequency:   -0.3055737104
    eigenvector:
    - # atom 1
      - [  0.99998626802096,  0.00000000000000 ]
      - [ -0.00000000000001,  0.00000000000000 ]
      - [ -0.00000000000000, -0.00524058866058 ]

- q-position: [    0.0550000,   -0.0550000,    0.0550000 ]
  distance:    0.0275000
  band:
  - # 1
    frequency:   -0.8696547564
    eigenvector:
    - # atom 1
      - [ -0.00000000000001,  0.00000000000000 ]
      - [ -0.99974183554494,  0.02272140535329 ]
      - [ -0.00000000000000,  0.00000000000000 ]
  - # 2
    frequency:   -0.3365314435
    eigenvector:
    - # atom 1
      - [  0.01666553601975,  0.00000000000000 ]
      - [ -0.00000000000000,  0.00000000000000 ]
      - [ -0.99214006947055,  0.12401750868382 ]
  - # 3
    frequency:   -0.3365314435
    eigenvector:
    - # atom 1
      - [  0.99986112031080,  0.00000000000000 ]
      - [ -0.00000000000001,  0.00000000000000 ]
      - [  0.01653684269597, -0.00206710533700 ]

- q-position: [    0.0600000,   -0.0600000,    0.0600000 ]
  distance:    0.0300000
  band:
  - # 1
    frequency:   -0.9437297732
    eigenvector:
    - # atom 1
      - [  0.00000000000000,  0.00000000000000 ]
      - [  0.99745869983073,  0.07124704998791 ]
      - [ -0.00000000000000, -0.00000000000000 ]
  - # 2
    frequency:   -0.3675939545
    eigenvector:
    - # atom 1
      - [  0.03769413171772,  0.00000000000000 ]
      - [  0.00000000000000, -0.00000000000000 ]
      - [  0.79943145894929, -0.59957359421196 ]
  - # 3
    frequency:   -0.3675939545
    eigenvector:
    - # atom 1
      - [  0.99928932368661,  0.00000000000000 ]
      - [ -0.00000000000000, -0.00000000000000 ]
      - [ -0.03015530537417,  0.02261647903063 ]

- q-position: [    0.0650000,   -0.0650000,    0.0650000 ]
  distance:    0.0325000
  band:
  - # 1
    frequency:   -1.0165958186
    eigenvector:
    - # atom 1
      - [ -0.00000000000000,  0.00000000000000 ]
      - [ -0.99555573511454, -0.09417419115948 ]
      - [ -0.00000000000000,  0.00000000000000 ]
  - # 2
    frequency:   -0.3987666263
    eigenvector:
    - # atom 1
      - [  0.05257535816881,  0.00000000000000 ]
      - [ -0.00000000000000,  0.00000000000000 ]
      - [ -0.99667223130194,  0.06229201445637 ]
  - # 3
    frequency:   -0.3987666263
    eigenvector:
    - # atom 1
      - [  0.99861695945614,  0.00000000000000 ]
      - [ -0.00000000000000, -0.00000000000000 ]
      - [  0.05247297178504, -0.00327956073656 ]

- q-position: [    0.0700000,   -0.0700000,    0.0700000 ]
  distance:    0.0350000
  band:
  - # 1
    frequency:   -1.0881881991
    eigenvector:
    - # atom 1
      - [ -0.00000000000000,  0.00000000000000 ]
      - [ -0.99681527853613,  0.07974522228289 ]
      - [ -0.00000000000000,  0.00000000000000 ]
  - # 2
    frequency:   -0.4300538918
    eigenvector:
    - # atom 1
      - [  0.05112143136126,  0.00000000000000 ]
      - [ -0.00000000000000,  0.00000000000000 ]
      - [ -0.99869244477746,  0.00000000000000 ]
  - # 3
    frequency:   -0.4300538918
    eigenvector:
    - # atom 1
      - [  0.99869244477746,  0.00000000000000 ]
      - [ -0.00000000000000,  0.00000000000000 ]
      - [  0.05112143136126, -0.00000000000000 ]

- q-position: [    0.0750000,   -0.0750000,    0.0750000 ]
  distance:    0.0375000
  band:
  - # 1
    frequency:   -1.1584497744
    eigenvector:
    - # atom 1
      - [  0.00000000000000,  0.00000000000000 ]
      - [  0.99984059934545,  0.01785429641688 ]
      - [ -0.00000000000000,  0.00000000000000 ]
  - # 2
    frequency:   -0.4614592047
    eigenvector:
    - # atom 1
      - [  0.00455292955228,  0.00000000000000 ]
      - [  0.00000000000000,  0.00000000000000 ]
      - [  0.89441792058634, -0.44720896029317 ]
  - # 3
    frequency:   -0.4614592047
    eigenvector:
    - # atom 1
      - [  0.99998963536253,  0.00000000000000 ]
      - [ -0.00000000000000, -0.00000000000000 ]
      - [ -0.00407226399027,  0.00203613199513 ]

- q-position: [    0.0800000,   -0.0800000,    0.0800000 ]
  distance:    0.0400000
  band:
  - # 1
    frequency:   -1.2273311312
    eigenvector:
    - # atom 1
      - [  0.00000000000000,  0.00000000000000 ]
      - [  0.99900499467908, -0.04459843726246 ]
      - [ -0.00000000000000,  0.00000000000000 ]
  - # 2
    frequency:   -0.4929850183
    eigenvector:
    - # atom 1
      - [ -0.13097611753947,  0.00000000000000 ]
      - [  0.00000000000000, -0.00000000000000 ]
      - [ -0.99138552371632,  0.00000000000000 ]
  - # 3
    frequency:   -0.4929850183
    eigenvector:
    - # atom 1
      - [  0.99138552371632,  0.00000000000000 ]
      - [ -0.00000000000000,  0.00000000000000 ]
      - [ -0.13097611753947,  0.00000000000000 ]

- q-position: [    0.0850000,   -0.0850000,    0.0850000 ]
  distance:    0.0425000
  band:
  - # 1
    frequency:   -1.2947906738
    eigenvector:
    - # atom 1
      - [ -0.00000000000000,  0.00000000000000 ]
      - [ -0.99956775446435,  0.02939905160189 ]
      - [ -0.00000000000000, -0.00000000000000 ]
  - # 2
    frequency:   -0.5246327750
    eigenvector:
    - # atom 1
      - [  0.01241043202437,  0.00000000000000 ]
      - [  0.00000000000000, -0.00000000000000 ]
      - [ -0.97006778716540,  0.24251694679135 ]
  - # 3
    frequency:   -0.5246327750
    eigenvector:
    - # atom 1
      - [  0.99992298762303,  0.00000000000000 ]
      - [ -0.00000000000000,  0.00000000000000 ]
      - [  0.01203988755201, -0.00300997188800 ]

- q-position: [    0.0900000,   -0.0900000,    0.0900000 ]
  distance:    0.0450000
  band:
  - # 1
    frequency:   -1.3607946322
    eigenvector:
    - # atom 1
      - [ -0.00000000000000,  0.00000000000000 ]
      - [ -0.99959974203996,  0.02829055873698 ]
      - [ -0.00000000000000,  0.00000000000000 ]
  - # 2
    frequency:   -0.5564029031
    eigenvector:
    - # atom 1
      - [ -0.17861872715280,  0.00000000000000 ]
      - [  0.00000000000000, -0.00000000000000 ]
      - [  0.98141793376463, -0.07010128098319 ]
  - # 3
    frequency:   -0.5564029031
    eigenvector:
    - # atom 1
      - [  0.98391836567386,  0.00000000000000 ]
      - [ -0.00000000000000,  0.00000000000000 ]
      - [  0.17816480335126, -0.01272605738223 ]

- q-position: [    0.0950000,   -0.0950000,    0.0950000 ]
  distance:    0.0475000
  band:
  - # 1
    frequency:   -1.4253169827
    eigenvector:
    - # atom 1
      - [  0.00000000000000,  0.00000000000000 ]
      - [  0.99778515785661, -0.06651901052377 ]
      - [  0.00000000000000,  0.00000000000000 ]
  - # 2
    frequency:   -0.5882948232
    eigenvector:
    - # atom 1
      - [  0.01401095361499,  0.00000000000000 ]
      - [ -0.00000000000000,  0.00000000000000 ]
      - [  0.99990184177188, -0.00000000000000 ]
  - # 3
    frequency:   -0.5882948232
    eigenvector:
    - # atom 1
      - [  0.99990184177188,  0.00000000000000 ]
      - [ -0.00000000000000,  0.00000000000000 ]
      - [ -0.01401095361499,  0.00000000000000 ]

- q-position: [    0.1000000,   -0.1000000,    0.1000000 ]
  distance:    0.0500000
  band:
  - # 1
    frequency:   -1.4883392830
    eigenvector:
    - # atom 1
      - [  0.00000000000000,  0.00000000000000 ]
      - [  0.99469179382655, -0.10289915108551 ]
      - [ -0.00000000000000,  0.00000000000000 ]
  - # 2
    frequency:   -0.6203069621
    eigenvector:
    - # atom 1
      - [  0.05094476131167,  0.00000000000000 ]
      - [  0.00000000000000, -0.00000000000000 ]
      - [  0.98511306425608, -0.16418551070935 ]
  - # 3
    frequency:   -0.6203069621
    eigenvector:
    - # atom 1
      - [  0.99870147256069,  0.00000000000000 ]
      - [ -0.00000000000000,  0.00000000000000 ]
      - [ -0.05025160300891,  0.00837526716815 ]

- q-position: [    0.1050000,   -0.1050000,    0.1050000 ]
  distance:    0.0525000
  band:
  - # 1
    frequency:   -1.5498504208
    eigenvector:
    - # atom 1
      - [  0.00000000000000,  0.00000000000000 ]
      - [  0.99519741087468, -0.09788826992210 ]
      - [ -0.00000000000000,  0.00000000000000 ]
  - # 2
    frequency:   -0.6524367739
    eigenvector:
    - # atom 1
      - [  0.01816580607120,  0.00000000000000 ]
      - [  0.00000000000000,  0.00000000000000 ]
      - [  0.44713979994847,  0.89427959989694 ]
  - # 3
    frequency:   -0.6524367739
    eigenvector:
    - # atom 1
      - [  0.99983498813043,  0.00000000000000 ]
      - [ -0.00000000000000,  0.00000000000000 ]
      - [ -0.00812399544825, -0.01624799089651 ]

- q-position: [    0.1100000,   -0.1100000,    0.1100000 ]
  distance:    0.0550000
  band:
  - # 1
    frequency:   -1.6098462789
    eigenvector:
    - # atom 1
      - [  0.00000000000000,  0.00000000000000 ]
      - [  0.99987404748360, -0.01587101662672 ]
      - [ -0.00000000000000,  0.00000000000000 ]
  - # 2
    frequency:   -0.6846807679
    eigenvector:
    - # atom 1
      - [  0.07131197439781,  0.00000000000000 ]
      - [ -0.00000000000000,  0.00000000000000 ]
      - [  0.96767257579021, -0.24191814394755 ]
  - # 3
    frequency:   -0.6846807679
    eigenvector:
    - # atom 1
      - [  0.99745406024914,  0.00000000000000 ]
      - [ -0.00000000000000,  0.00000000000000 ]
      - [ -0.06918277713259,  0.01729569428315 ]

- q-position: [    0.1150000,   -0.1150000,    0.1150000 ]
  distance:    0.0575000
  band:
  - # 1
    frequency:   -1.6683293175
    eigenvector:
    - # atom 1
      - [ -0.00000000000000,  0.00000000000000 ]
      - [ -0.98418332397370,  0.17715299831527 ]
      - [  0.00000000000000, -0.00000000000000 ]
  - # 2
    frequency:   -0.7170345422
    eigenvector:
    - # atom 1
      - [  0.02450730791823,  0.00000000000000 ]
      - [ -0.00000000000000,  0.00000000000000 ]
      - [ -0.89415855053054,  0.44707927526527 ]
  - # 3
    frequency:   -0.7170345422
    eigenvector:
    - # atom 1
      - [  0.99969965082449,  0.00000000000000 ]
      - [ -0.00000000000000,  0.00000000000000 ]
      - [  0.02192000258028, -0.01096000129014 ]

- q-position: [    0.1200000,   -0.1200000,    0.1200000 ]
  distance:    0.0600000
  band:
  - # 1
    frequency:   -1.7253080803
    eigenvector:
    - # atom 1
      - [ -0.00000000000000,  0.00000000000000 ]
      - [ -0.99298827419494, -0.11821288978511 ]
      - [  0.00000000000000, -0.00000000000000 ]
  - # 2
    frequency:   -0.7494928227
    eigenvector:
    - # atom 1
      - [ -0.20467352795772,  0.00000000000000 ]
      - [  0.00000000000000,  0.00000000000000 ]
      - [  0.97883029527766,  0.00000000000000 ]
  - # 3
    frequency:   -0.7494928227
    eigenvector:
    - # atom 1
      - [ -0.97883029527766,  0.00000000000000 ]
      - [  0.00000000000000,  0.00000000000000 ]
      - [ -0.20467352795772, -0.00000000000000 ]

- q-position: [    0.1250000,   -0.1250000,    0.1250000 ]
  distance:    0.0625000
  band:
  - # 1
    frequency:   -1.7807966278
    eigenvector:
    - # atom 1
      - [ -0.00000000000000,  0.00000000000000 ]
      - [ -0.99883139608200,  0.04833055142332 ]
      - [  0.00000000000000,  0.00000000000000 ]
  - # 2
    frequency:   -0.7820495061
    eigenvector:
    - # atom 1
      - [  0.04058141048036,  0.00000000000000 ]
      - [ -0.00000000000000, -0.00000000000000 ]
      - [ -0.94790180620731, -0.31596726873577 ]
  - # 3
    frequency:   -0.7820495061
    eigenvector:
    - # atom 1
      - [  0.99917623526754,  0.00000000000000 ]
      - [ -0.00000000000000,  0.00000000000000 ]
      - [  0.03849890633405,  0.01283296877802 ]

- q-position: [    0.1300000,   -0.1300000,    0.1300000 ]
  distance:    0.0650000
  band:
  - # 1
    frequency:   -1.8348139063
    eigenvector:
    - # atom 1
      - [ -0.00000000000000,  0.00000000000000 ]
      - [ -0.99989188604758,  0.01470429244188 ]
      - [  0.00000000000000,  0.00000000000000 ]
  - # 2
    frequency:   -0.8146977057
    eigenvector:
    - # atom 1
      - [  0.03218594400781,  0.00000000000000 ]
      - [ -0.00000000000000,  0.00000000000000 ]
      - [ -0.70674042795369,  0.70674042795369 ]
  - # 3
    frequency:   -0.8146977057
    eigenvector:
    - # atom 1
      - [  0.99948189828947,  0.00000000000000 ]
      - [ -0.00000000000000,  0.00000000000000 ]
      - [  0.02275889926681, -0.02275889926681 ]

- q-position: [    0.1350000,   -0.1350000,    0.1350000 ]
  distance:    0.0675000
  band:
  - # 1
    frequency:   -1.8873830589
    eigenvector:
    - # atom 1
      - [ -0.00000000000000,  0.00000000000000 ]
      - [ -0.99988523555365,  0.01514977629627 ]
      - [  0.00000000000000,  0.00000000000000 ]
  - # 2
    frequency:   -0.8474298001
    eigenvector:
    - # atom 1
      - [  0.26216541652356,  0.00000000000000 ]
      - [ -0.00000000000000,  0.00000000000000 ]
      - [ -0.77201836014604,  0.57901377010953 ]
  - # 3
    frequency:   -0.8474298001
    eigenvector:
    - # atom 1
      - [  0.96502295018255, -0.00000000000000 ]
      - [ -0.00000000000000, -0.00000000000000 ]
      - [  0.20973233321885, -0.15729924991414 ]

- q-position: [    0.1400000,   -0.1400000,    0.1400000 ]
  distance:    0.0700000
  band:
  - # 1
    frequency:   -1.9385306890
    eigenvector:
    - # atom 1
      - [ -0.00000000000000,  0.00000000000000 ]
      - [ -0.99908289581767,  0.04281783839219 ]
      - [ -0.00000000000000, -0.00000000000000 ]
  - # 2
    frequency:   -0.8802374834
    eigenvector:
    - # atom 1
      - [  0.01246633693982,  0.00000000000000 ]
      - [ -0.00000000000000, -0.00000000000000 ]
      - [ -0.99992229220240, -0.00000000000000 ]
  - # 3
    frequency:   -0.8802374834
    eigenvector:
    - # atom 1
      - [  0.99992229220240,  0.00000000000000 ]
      - [ -0.00000000000000,  0.00000000000000 ]
      - [  0.01246633693982,  0.00000000000000 ]

- q-position: [    0.1450000,   -0.1450000,    0.1450000 ]
  distance:    0.0725000
  band:
  - # 1
    frequency:   -1.9882860865
    eigenvector:
    - # atom 1
      - [ -0.00000000000000,  0.00000000000000 ]
      - [ -0.99796908286363,  0.06370015422534 ]
      - [ -0.00000000000000, -0.00000000000000 ]
  - # 2
    frequency:   -0.9131118154
    eigenvector:
    - # atom 1
      - [  0.02796882946358,  0.00000000000000 ]
      - [  0.00000000000000, -0.00000000000000 ]
      - [ -0.99960879576884, -0.00000000000000 ]
  - # 3
    frequency:   -0.9131118154
    eigenvector:
    - # atom 1
      - [  0.99960879576884,  0.00000000000000 ]
      - [ -0.00000000000000,  0.00000000000000 ]
      - [  0.02796882946358,  0.00000000000000 ]

- q-position: [    0.1500000,   -0.1500000,    0.1500000 ]
  distance:    0.0750000
  band:
  - # 1
    frequency:   -2.0366804284
    eigenvector:
    - # atom 1
      - [ -0.00000000000000,  0.00000000000000 ]
      - [ -1.00000000000000, -0.00000000000000 ]
      - [  0.00000000000000, -0.00000000000000 ]
  - # 2
    frequency:   -0.9460432722
    eigenvector:
    - # atom 1
      - [  0.99983887887525,  0.00000000000000 ]
      - [ -0.00000000000000, -0.00000000000000 ]
      - [ -0.01795038410399, -0.00000000000000 ]
  - # 3
    frequency:   -0.9460432722
    eigenvector:
    - # atom 1
      - [ -0.01795038410399,  0.00000000000000 ]
      - [ -0.00000000000000, -0.00000000000000 ]
      - [ -0.99983887887525, -0.00000000000000 ]

- q-position: [    0.1550000,   -0.1550000,    0.1550000 ]
  distance:    0.0775000
  band:
  - # 1
    frequency:   -2.0837459653
    eigenvector:
    - # atom 1
      - [ -0.00000000000000,  0.00000000000000 ]
      - [ -0.99922182340902,  0.03944296671351 ]
      - [  0.00000000000000, -0.00000000000000 ]
  - # 2
    frequency:   -0.9790217946
    eigenvector:
    - # atom 1
      - [  0.02035217058156,  0.00000000000000 ]
      - [ -0.00000000000000,  0.00000000000000 ]
      - [ -0.89424193109141,  0.44712096554571 ]
  - # 3
    frequency:   -0.9790217946
    eigenvector:
    - # atom 1
      - [  0.99979287312554,  0.00000000000000 ]
      - [ -0.00000000000000,  0.00000000000000 ]
      - [  0.01820353476402, -0.00910176738201 ]

- q-position: [    0.1600000,   -0.1600000,    0.1600000 ]
  distance:    0.0800000
  band:
  - # 1
    frequency:   -2.1295152084
    eigenvector:
    - # atom 1
      - [ -0.00000000000000,  0.00000000000000 ]
      - [ -0.99696214134924,  0.07788766729291 ]
      - [ -0.00000000000000,  0.00000000000000 ]
  - # 2
    frequency:   -1.0120368359
    eigenvector:
    - # atom 1
      - [  0.99880655724593,  0.00000000000000 ]
      - [ -0.00000000000000,  0.00000000000000 ]
      - [ -0.04063832108011, -0.02709221405341 ]
  - # 3
    frequency:   -1.0120368359
    eigenvector:
    - # atom 1
      - [ -0.04884118346770,  0.00000000000000 ]
      - [  0.00000000000000,  0.00000000000000 ]
      - [ -0.83105728994305, -0.55403819329536 ]

- q-position: [    0.1650000,   -0.1650000,    0.1650000 ]
  distance:    0.0825000
  band:
  - # 1
    frequency:   -2.1740201287
    eigenvector:
    - # atom 1
      - [ -0.00000000000000,  0.00000000000000 ]
      - [ -0.99873132173333,  0.05035620109580 ]
      - [  0.00000000000000,  0.00000000000000 ]
  - # 2
    frequency:   -1.0450774060
    eigenvector:
    - # atom 1
      - [  0.07978627649804,  0.00000000000000 ]
      - [ -0.00000000000000,  0.00000000000000 ]
      - [ -0.82939771246476,  0.55293180830985 ]
  - # 3
    frequency:   -1.0450774060
    eigenvector:
    - # atom 1
      - [  0.99681199334808,  0.00000000000000 ]
      - [ -0.00000000000000,  0.00000000000000 ]
      - [  0.06638619484432, -0.04425746322954 ]

- q-position: [    0.1700000,   -0.1700000,    0.1700000 ]
  distance:    0.0850000
  band:
  - # 1
    frequency:   -2.2172913829
    eigenvector:
    - # atom 1
      - [ -0.00000000000000,  0.00000000000000 ]
      - [ -0.99654575824488,  0.08304547985374 ]
      - [  0.00000000000000, -0.00000000000000 ]
  - # 2
    frequency:   -1.0781321130
    eigenvector:
    - # atom 1
      - [  0.10194153096254,  0.00000000000000 ]
      - [ -0.00000000000000, -0.00000000000000 ]
      - [ -0.99479039212540, -0.00000000000000 ]
  - # 3
    frequency:   -1.0781321130
    eigenvector:
    - # atom 1
      - [  0.99479039212540,  0.00000000000000 ]
      - [ -0.00000000000000,  0.00000000000000 ]
      - [  0.10194153096254,  0.00000000000000 ]

- q-position: [    0.1750000,   -0.1750000,    0.1750000 ]
  distance:    0.0875000
  band:
  - # 1
    frequency:   -2.2593575795
    eigenvector:
    - # atom 1
      - [ -0.00000000000000,  0.00000000000000 ]
      - [ -0.99348007152630, -0.11400590984728 ]
      - [  0.00000000000000,  0.00000000000000 ]
  - # 2
    frequency:   -1.1111892004
    eigenvector:
    - # atom 1
      - [ -0.29519601899635,  0.00000000000000 ]
      - [  0.00000000000000,  0.00000000000000 ]
      - [  0.95543671185940, -0.00000000000000 ]
  - # 3
    frequency:   -1.1111892004
    eigenvector:
    - # atom 1
      - [ -0.95543671185940, -0.00000000000000 ]
      - [  0.00000000000000,  0.00000000000000 ]
      - [ -0.29519601899635,  0.00000000000000 ]

- q-position: [    0.1800000,   -0.1800000,    0.1800000 ]
  distance:    0.0900000
  band:
  - # 1
    frequency:   -2.3002445974
    eigenvector:
    - # atom 1
      - [ -0.00000000000000,  0.00000000000000 ]
      - [ -1.00000000000000,  0.00000000000000 ]
      - [  0.00000000000000, -0.00000000000000 ]
  - # 2
    frequency:   -1.1442365809
    eigenvector:
    - # atom 1
      - [  0.07377913072800,  0.00000000000000 ]
      - [ -0.00000000000000,  0.00000000000000 ]
      - [ -0.94609776232804,  0.31536592077601 ]
  - # 3
    frequency:   -1.1442365809
    eigenvector:
    - # atom 1
      - [  0.99727460604841,  0.00000000000000 ]
      - [ -0.00000000000000,  0.00000000000000 ]
      - [  0.06999302906634, -0.02333100968878 ]

- q-position: [    0.1850000,   -0.1850000,    0.1850000 ]
  distance:    0.0925000
  band:
  - # 1
    frequency:   -2.3399749688
    eigenvector:
    - # atom 1
      - [ -0.00000000000000,  0.00000000000000 ]
      - [ -0.99464610508131,  0.10333985507338 ]
      - [  0.00000000000000, -0.00000000000000 ]
  - # 2
    frequency:   -1.1772618648
    eigenvector:
    - # atom 1
      - [  0.02875569158904,  0.00000000000000 ]
      - [ -0.00000000000000, -0.00000000000000 ]