# Tetrahedron method
       -4.7710358132        0.0000000000
       -4.7450119812        0.0000000000
       -4.7189881491        0.0000000000
       -4.6929643171        0.0000000000
       -4.6669404851        0.0000000000
       -4.6409166530        0.0000000000
       -4.6148928210        0.0000000000
       -4.5888689889        0.0000000000
       -4.5628451569        0.0000000000
       -4.5368213249        0.0000000000
       -4.5107974928        0.0000000000
       -4.4847736608        0.0000000000
       -4.4587498288        0.0000000000
       -4.4327259967        0.0000000000
       -4.4067021647        0.0000000000
       -4.3806783327        0.0000000000
       -4.3546545006        0.0000000000
       -4.3286306686        0.0627193491
       -4.3026068366        0.1277657366
       -4.2765830045        0.1777003632
       -4.2505591725        0.2122969505
       -4.2245353405        0.2486411142
       -4.1985115084        0.2754052461
       -4.1724876764        0.3086001528
       -4.1464638444        0.3352803876
       -4.1204400123        0.3605317290
       -4.0944161803        0.3918018930
       -4.0683923483        0.4183184733
       -4.0423685162        0.4433631378
       -4.0163446842        0.4725275726
       -3.9903208522        0.5041197162
       -3.9642970201        0.5330437270
       -3.9382731881        0.5614356263
       -3.9122493561        0.5976894947
       -3.8862255240        0.6376214720
       -3.8602016920        0.6773644737
       -3.8341778600        0.7161333313
       -3.8081540279        0.7811139087
       -3.7821301959        0.8580519357
       -3.7561063639        0.9650127957
       -3.7300825318        1.1690321956
       -3.7040586998        1.1008696567
       -3.6780348678        1.1072133221
       -3.6520110357        0.9738118469
       -3.6259872037        0.9131701154
       -3.5999633717        0.8606465091
       -3.5739395396        0.8213783019
       -3.5479157076        0.7899534620
       -3.5218918756        0.7580610645
       -3.4958680435        0.7124656290
       -3.4698442115        0.6788834145
       -3.4438203795        0.6504167524
       -3.4177965474        0.6266839878
       -3.3917727154        0.6103385512
       -3.3657488834        0.5948294547
       -3.3397250513        0.5890081669
       -3.3137012193        0.5972798720
       -3.2876773873        0.5886439118
       -3.2616535552        0.5872091013
       -3.2356297232        0.5885706555
       -3.2096058912        0.5979736407
       -3.1835820591        0.6002518727
       -3.1575582271        0.6036211821
       -3.1315343951        0.6059112069
       -3.1055105630        0.6172833014
       -3.0794867310        0.6232867012
       -3.0534628990        0.6267047094
       -3.0274390669        0.6249983937
       -3.0014152349        0.6346012072
       -2.9753914029        0.6345448490
       -2.9493675708        0.6375184999
       -2.9233437388        0.6016108857
       -2.8973199068        0.5913083308
       -2.8712960747        0.5859958480
       -2.8452722427        0.5848730966
       -2.8192484107        0.5818395573
       -2.7932245786        0.5798340388
       -2.7672007466        0.5796272629
       -2.7411769146        0.5810882297
       -2.7151530825        0.5914632849
       -2.6891292505        0.5995596785
       -2.6631054185        0.6104281935
       -2.6370815864        0.6198545461
       -2.6110577544        0.6282107435
       -2.5850339224        0.6363302492
       -2.5590100903        0.6637991351
       -2.5329862583        0.7102237662
       -2.5069624263        0.7603994856
       -2.4809385942        0.7685342999
       -2.4549147622        0.7841777713
       -2.4288909302        0.7901348466
       -2.4028670981        0.8040946320
       -2.3768432661        0.8082561717
       -2.3508194341        0.8174070898
       -2.3247956020        0.8291449202
       -2.2987717700        0.8372717169
       -2.2727479379        0.8433392235
       -2.2467241059        0.8527964095
       -2.2207002739        0.8644860784
       -2.1946764418        0.8723954158
       -2.1686526098        0.8805665533
       -2.1426287778        0.8897652554
       -2.1166049457        0.9014656715
       -2.0905811137        0.9122051596
       -2.0645572817        0.9211569934
       -2.0385334496        0.9321340369
       -2.0125096176        0.9440541705
       -1.9864857856        0.9571274669
       -1.9604619535        0.9699949037
       -1.9344381215        0.9832163799
       -1.9084142895        0.9971710532
       -1.8823904574        1.0113564886
       -1.8563666254        1.0277968953
       -1.8303427934        1.0459820276
       -1.8043189613        1.0645181831
       -1.7782951293        1.0836779961
       -1.7522712973        1.1046854102
       -1.7262474652        1.1273624641
       -1.7002236332        1.1509774944
       -1.6741998012        1.1793235440
       -1.6481759691        1.2115572209
       -1.6221521371        1.2454570123
       -1.5961283051        1.2829059702
       -1.5701044730        1.3257864140
       -1.5440806410        1.3763160523
       -1.5180568090        1.4335571864
       -1.4920329769        1.5040386227
       -1.4660091449        1.6094916516
       -1.4399853129        1.6597317500
       -1.4139614808        1.8051565981
       -1.3879376488        2.2603667089
       -1.3619138168        2.2103176272
       -1.3358899847        2.1762232709
       -1.3098661527        2.1495443021
       -1.2838423207        2.1734385816
       -1.2578184886        2.1451814039
       -1.2317946566        1.8503738042
       -1.2057708246        1.1366777716
       -1.1797469925        0.9833980424
       -1.1537231605        0.8781849944
       -1.1276993285        0.7995694420
       -1.1016754964        0.7225651478
       -1.0756516644        0.6676104629
       -1.0496278324        0.6116392316
       -1.0236040003        0.5679341586
       -0.9975801683        0.5259515774
       -0.9715563363        0.4853528414
       -0.9455325042        0.4527096567
       -0.9195086722        0.4206378407
       -0.8934848402        0.3896452079
       -0.8674610081        0.3625674370
       -0.8414371761        0.3372719429
       -0.8154133441        0.3135836117
       -0.7893895120        0.2906246454
       -0.7633656800        0.2690645048
       -0.7373418480        0.2494153962
       -0.7113180159        0.2314017998
       -0.6852941839        0.2134565567
       -0.6592703519        0.1961916280
       -0.6332465198        0.1802611996
       -0.6072226878        0.1652655041
       -0.5811988558        0.1514119333
       -0.5551750237        0.1375740986
       -0.5291511917        0.1244572601
       -0.5031273597        0.1123174641
       -0.4771035276        0.1015850938
       -0.4510796956        0.0910433966
       -0.4250558636        0.0802594982
       -0.3990320315        0.0706074944
       -0.3730081995        0.0621245589
       -0.3469843675        0.0538535264
       -0.3209605354        0.0452896853
       -0.2949367034        0.0380747177
       -0.2689128714        0.0321760737
       -0.2428890393        0.0263564780
       -0.2168652073        0.0201487616
       -0.1908413753        0.0161111166
       -0.1648175432        0.0126311262
       -0.1387937112        0.0086288427
       -0.1127698792        0.0038906541
       -0.0867460471        0.0021605545
       -0.0607222151        0.0009892839
       -0.0346983831        0.0003003742
       -0.0086745510        0.0000173573
        0.0173492810        0.0000000000
        0.0433731131        0.0000000000
        0.0693969451        0.0000000000
        0.0954207771        0.0000000000
        0.1214446092        0.0000000000
        0.1474684412        0.0000000000
        0.1734922732        0.0000000000
        0.1995161053        0.0000000000
        0.2255399373        0.0000000000
        0.2515637693        0.0000000000
        0.2775876014        0.0000000000
        0.3036114334        0.0000000000
        0.3296352654        0.0000000000
        0.3556590975        0.0000000000
        0.3816829295        0.0000000000
        0.4077067615        0.0000000000
        0.4337305936        0.0000000000
