nqpoint: 427    
npath: 6      
segment_nqpoint:
- 95
- 34
- 101
- 82
- 67
- 48
labels:
- [ '$\Gamma$', '$\mathrm{X}$' ]
- [ '$\mathrm{X}$', '$\mathrm{U}$' ]
- [ '$\mathrm{K}$', '$\Gamma$' ]
- [ '$\Gamma$', '$\mathrm{L}$' ]
- [ '$\mathrm{L}$', '$\mathrm{W}$' ]
- [ '$\mathrm{W}$', '$\mathrm{X}$' ]
reciprocal_lattice:
- [  -0.18416206,   0.18416206,   0.18416206 ] # a*
- [   0.18416206,  -0.18416206,   0.18416206 ] # b*
- [   0.18416206,   0.18416206,  -0.18416206 ] # c*
natom: 2      
lattice:
- [     0.000000000000000,     2.715000000000000,     2.715000000000000 ] # a
- [     2.715000000000000,     0.000000000000000,     2.715000000000000 ] # b
- [     2.715000000000000,     2.715000000000000,     0.000000000000000 ] # c
points:
- symbol: Al # 1
  coordinates: [  0.000000000000000,  0.000000000000000,  0.000000000000000 ]
  mass: 26.981538
- symbol: Al # 2
  coordinates: [  0.250000000000000,  0.250000000000000,  0.250000000000000 ]
  mass: 26.981538

phonon:
- q-position: [    0.0000000,    0.0000000,    0.0000000 ]
  distance:    0.0000000
  band:
  - # 1
    frequency:   -0.0000001184
    eigenvector:
    - # atom 1
      - [ -0.46551506186132,  0.00000000000000 ]
      - [ -0.47477778104619,  0.00000000000000 ]
      - [ -0.24058633752795,  0.00000000000000 ]
    - # atom 2
      - [ -0.46551506186132,  0.00000000000000 ]
      - [ -0.47477778104619,  0.00000000000000 ]
      - [ -0.24058633752795,  0.00000000000000 ]
  - # 2
    frequency:   -0.0000000264
    eigenvector:
    - # atom 1
      - [ -0.51492085100329,  0.00000000000000 ]
      - [  0.32081496977382,  0.00000000000000 ]
      - [  0.36322757655644,  0.00000000000000 ]
    - # atom 2
      - [ -0.51492085100329,  0.00000000000000 ]
      - [  0.32081496977382,  0.00000000000000 ]
      - [  0.36322757655644,  0.00000000000000 ]
  - # 3
    frequency:    0.0000001247
    eigenvector:
    - # atom 1
      - [  0.13473026527954,  0.00000000000000 ]
      - [ -0.41432332035969,  0.00000000000000 ]
      - [  0.55694159642087,  0.00000000000000 ]
    - # atom 2
      - [  0.13473026527954,  0.00000000000000 ]
      - [ -0.41432332035969,  0.00000000000000 ]
      - [  0.55694159642087,  0.00000000000000 ]
  - # 4
    frequency:   13.1134704187
    eigenvector:
    - # atom 1
      - [ -0.00000000000000,  0.00000000000000 ]
      - [  0.24486422911404,  0.00000000000000 ]
      - [  0.66335624614560,  0.00000000000000 ]
    - # atom 2
      - [ -0.00000000000000,  0.00000000000000 ]
      - [ -0.24486422911404,  0.00000000000000 ]
      - [ -0.66335624614560,  0.00000000000000 ]
  - # 5
    frequency:   13.1134704187
    eigenvector:
    - # atom 1
      - [  0.70710678118655,  0.00000000000000 ]
      - [  0.00000000000000,  0.00000000000000 ]
      - [  0.00000000000000,  0.00000000000000 ]
    - # atom 2
      - [ -0.70710678118655,  0.00000000000000 ]
      - [  0.00000000000000,  0.00000000000000 ]
      - [ -0.00000000000000,  0.00000000000000 ]
  - # 6
    frequency:   13.1134704187
    eigenvector:
    - # atom 1
      - [  0.00000000000000,  0.00000000000000 ]
      - [ -0.66335624614560,  0.00000000000000 ]
      - [  0.24486422911404,  0.00000000000000 ]
    - # atom 2
      - [  0.00000000000000,  0.00000000000000 ]
      - [  0.66335624614560,  0.00000000000000 ]
      - [ -0.24486422911404,  0.00000000000000 ]

- q-position: [    0.0053191,    0.0000000,    0.0053191 ]
  distance:    0.0019592
  band:
  - # 1
    frequency:   -0.1171535738
    eigenvector:
    - # atom 1
      - [ -0.09429451879696,  0.00000000000000 ]
      - [ -0.00000000000018, -0.00000000000050 ]
      - [ -0.53218494381443, -0.45594706853107 ]
    - # atom 2
      - [ -0.10546905342388,  0.01307623167941 ]
      - [ -0.00000000000018, -0.00000000000050 ]
      - [ -0.53202427255515, -0.45349251851282 ]
  - # 2
    frequency:   -0.1171535738
    eigenvector:
    - # atom 1
      - [ -0.70079136961356, -0.00000000000000 ]
      - [  0.00000000000031,  0.00000000000007 ]
      - [  0.07160779279522,  0.06134965595785 ]
    - # atom 2
      - [ -0.69907238196230, -0.00175946369683 ]
      - [  0.00000000000031,  0.00000000000007 ]
      - [  0.07158617378030,  0.07855016733629 ]
  - # 3
    frequency:    0.1000876515
    eigenvector:
    - # atom 1
      - [  0.00000000000028,  0.00000000000000 ]
      - [  0.70706425877441,  0.00775460919718 ]
      - [ -0.00000000000049,  0.00000000000024 ]
    - # atom 2
      - [  0.00000000000028,  0.00000000000001 ]
      - [  0.70706425877441,  0.00775460919718 ]
      - [ -0.00000000000049,  0.00000000000023 ]
  - # 4
    frequency:   13.1129191134
    eigenvector:
    - # atom 1
      - [ -0.00000000000000,  0.00000000000000 ]
      - [ -0.70710572468425, -0.00122234150948 ]
      - [  0.00000000000056,  0.00000000000035 ]
    - # atom 2
      - [ -0.00000000000001,  0.00000000000001 ]
      - [  0.70710572468425,  0.00122234150948 ]
      - [ -0.00000000000056, -0.00000000000035 ]
  - # 5
    frequency:   13.1139936945
    eigenvector:
    - # atom 1
      - [  0.00000000000000,  0.00000000000000 ]
      - [ -0.00000000000059, -0.00000000000030 ]
      - [ -0.37259569225888, -0.60097624754239 ]
    - # atom 2
      - [  0.01476649187096, -0.00915498954143 ]
      - [  0.00000000000059,  0.00000000000030 ]
      - [  0.37248320238149,  0.60079480759070 ]
  - # 6
    frequency:   13.1139936945
    eigenvector:
    - # atom 1
      - [  0.70710678118655,  0.00000000000000 ]
      - [ -0.00000000000000, -0.00000000000000 ]
      - [  0.00000000000000,  0.00000000000000 ]
    - # atom 2
      - [ -0.70689329950447, -0.00000000000000 ]
      - [  0.00000000000000, -0.00000000000000 ]
      - [ -0.00000000000000,  0.01737420834682 ]

- q-position: [    0.0106383,    0.0000000,    0.0106383 ]
  distance:    0.0039183
  band:
  - # 1
    frequency:   -0.2342468348
    eigenvector:
    - # atom 1
      - [ -0.70710678118655,  0.00000000000000 ]
      - [  0.00000000000000,  0.00000000000000 ]
      - [  0.00000000000000,  0.00000000000000 ]
    - # atom 2
      - [ -0.70625352621505, -0.00000000000000 ]
      - [  0.00000000000000, -0.00000000000000 ]
      - [ -0.00000000000000,  0.03472688740448 ]
  - # 2
    frequency:   -0.2342468348
    eigenvector:
    - # atom 1
      - [  0.00000000000000,  0.00000000000000 ]
      - [  0.00000000000000,  0.00000000000001 ]
      - [ -0.51363455268939, -0.48598307201339 ]
    - # atom 2
      - [ -0.02386722892683,  0.02522522729645 ]
      - [  0.00000000000000,  0.00000000000001 ]
      - [ -0.51301475770612, -0.48539664365025 ]
  - # 3
    frequency:    0.2001720389
    eigenvector:
    - # atom 1
      - [  0.00000000000000,  0.00000000000000 ]
      - [ -0.70430766125878, -0.06285473961589 ]
      - [ -0.00000000000001, -0.00000000000000 ]
    - # atom 2
      - [ -0.00000000000000,  0.00000000000000 ]
      - [ -0.70430766125878, -0.06285473961589 ]
      - [ -0.00000000000001,  0.00000000000000 ]
  - # 4
    frequency:   13.1112653140
    eigenvector:
    - # atom 1
      - [  0.00000000000000,  0.00000000000000 ]
      - [  0.70701066066572,  0.01165871798357 ]
      - [ -0.00000000000006,  0.00000000000006 ]
    - # atom 2
      - [ -0.00000000000000, -0.00000000000000 ]
      - [ -0.70701066066572, -0.01165871798357 ]
      - [  0.00000000000006, -0.00000000000006 ]
  - # 5
    frequency:   13.1155623360
    eigenvector:
    - # atom 1
      - [ -0.00000000000000,  0.00000000000000 ]
      - [ -0.00000000000003,  0.00000000000008 ]
      - [  0.31903696978165,  0.63104311414716 ]
    - # atom 2
      - [ -0.03099130676641,  0.01566829964335 ]
      - [  0.00000000000003, -0.00000000000008 ]
      - [ -0.31865199273462, -0.63028164404293 ]
  - # 6
    frequency:   13.1155623360
    eigenvector:
    - # atom 1
      - [ -0.70710678118655,  0.00000000000000 ]
      - [  0.00000000000000,  0.00000000000000 ]
      - [ -0.00000000000000,  0.00000000000000 ]
    - # atom 2
      - [  0.70625352621505,  0.00000000000000 ]
      - [ -0.00000000000000,  0.00000000000000 ]
      - [  0.00000000000000, -0.03472688740448 ]

- q-position: [    0.0159574,    0.0000000,    0.0159574 ]
  distance:    0.0058775
  band:
  - # 1
    frequency:   -0.3512196317
    eigenvector:
    - # atom 1
      - [  0.00000000000000,  0.00000000000000 ]
      - [  0.00000000000003, -0.00000000000002 ]
      - [ -0.70606191718789, -0.03842615121197 ]
    - # atom 2
      - [ -0.00282781559316,  0.05195974189940 ]
      - [  0.00000000000003, -0.00000000000002 ]
      - [ -0.70414743919493, -0.03832195918708 ]
  - # 2
    frequency:   -0.3512196317
    eigenvector:
    - # atom 1
      - [ -0.70710678118655,  0.00000000000000 ]
      - [  0.00000000000000,  0.00000000000000 ]
      - [  0.00000000000000,  0.00000000000000 ]
    - # atom 2
      - [ -0.70518947005803, -0.00000000000000 ]
      - [  0.00000000000000,  0.00000000000000 ]
      - [ -0.00000000000000,  0.05203663439617 ]
  - # 3
    frequency:    0.3002498958
    eigenvector:
    - # atom 1
      - [  0.00000000000000,  0.00000000000000 ]
      - [ -0.70122912480910, -0.09098194611828 ]
      - [ -0.00000000000003, -0.00000000000002 ]
    - # atom 2
      - [ -0.00000000000000,  0.00000000000000 ]
      - [ -0.70122912480910, -0.09098194611828 ]
      - [ -0.00000000000003, -0.00000000000002 ]
  - # 4
    frequency:   13.1085093697
    eigenvector:
    - # atom 1
      - [  0.00000000000000,  0.00000000000000 ]
      - [  0.70677337159508, -0.02171177570190 ]
      - [  0.00000000000003,  0.00000000000003 ]
    - # atom 2
      - [ -0.00000000000000,  0.00000000000000 ]
      - [ -0.70677337159508,  0.02171177570190 ]
      - [ -0.00000000000003, -0.00000000000003 ]
  - # 5
    frequency:   13.1181727921
    eigenvector:
    - # atom 1
      - [ -0.00000000000000,  0.00000000000000 ]
      - [ -0.00000000000004, -0.00000000000001 ]
      - [  0.26526012463907,  0.65546705964256 ]
    - # atom 2
      - [ -0.04823642008371,  0.01952073504735 ]
      - [  0.00000000000004,  0.00000000000001 ]
      - [ -0.26454087515305, -0.65368976896841 ]
  - # 6
    frequency:   13.1181727921
    eigenvector:
    - # atom 1
      - [ -0.70710678118655,  0.00000000000000 ]
      - [  0.00000000000000,  0.00000000000000 ]
      - [ -0.00000000000000,  0.00000000000000 ]
    - # atom 2
      - [  0.70518947005803,  0.00000000000000 ]
      - [ -0.00000000000000, -0.00000000000000 ]
      - [  0.00000000000000, -0.05203663439617 ]

- q-position: [    0.0212766,    0.0000000,    0.0212766 ]
  distance:    0.0078367
  band:
  - # 1
    frequency:   -0.4680121350
    eigenvector:
    - # atom 1
      - [ -0.01206566378708,  0.00000000000000 ]
      - [  0.00000000000002,  0.00000000000003 ]
      - [ -0.40604221071035,  0.57877814651110 ]
    - # atom 2
      - [  0.04470105417217,  0.03978400167911 ]
      - [  0.00000000000002,  0.00000000000003 ]
      - [ -0.40408849289350,  0.57717548360732 ]
  - # 2
    frequency:   -0.4680121350
    eigenvector:
    - # atom 1
      - [ -0.70700383291562,  0.00000000000000 ]
      - [  0.00000000000002, -0.00000000000000 ]
      - [  0.00692947982699, -0.00987737576232 ]
    - # atom 2
      - [ -0.70456978929907, -0.00067895019237 ]
      - [  0.00000000000002, -0.00000000000000 ]
      - [  0.00689613785455,  0.05944236129561 ]
  - # 3
    frequency:    0.4003179507
    eigenvector:
    - # atom 1
      - [  0.00000000000002,  0.00000000000000 ]
      - [  0.70701480692290,  0.01140450751982 ]
      - [ -0.00000000000001, -0.00000000000003 ]
    - # atom 2
      - [  0.00000000000002,  0.00000000000000 ]
      - [  0.70701480692290,  0.01140450751982 ]
      - [ -0.00000000000001, -0.00000000000004 ]
  - # 4
    frequency:   13.1046518625
    eigenvector:
    - # atom 1
      - [ -0.00000000000000,  0.00000000000000 ]
      - [ -0.70695955167152,  0.01442887037839 ]
      - [  0.00000000000004,  0.00000000000004 ]
    - # atom 2
      - [ -0.00000000000000,  0.00000000000000 ]
      - [  0.70695955167153, -0.01442887037839 ]
      - [ -0.00000000000004, -0.00000000000004 ]
  - # 5
    frequency:   13.1218191679
    eigenvector:
    - # atom 1
      - [  0.00000000000000,  0.00000000000000 ]
      - [ -0.00000000000005, -0.00000000000003 ]
      - [ -0.18212056028907, -0.68325112624861 ]
    - # atom 2
      - [  0.06694492157940, -0.01784416616111 ]
      - [  0.00000000000005,  0.00000000000003 ]
      - [  0.18124426670661,  0.67996358652116 ]
  - # 6
    frequency:   13.1218191679
    eigenvector:
    - # atom 1
      - [  0.70710678118655,  0.00000000000000 ]
      - [ -0.00000000000000,  0.00000000000000 ]
      - [  0.00000000000000,  0.00000000000000 ]
    - # atom 2
      - [ -0.70370445728924, -0.00000000000000 ]
      - [  0.00000000000000, -0.00000000000000 ]
      - [ -0.00000000000000,  0.06928229782027 ]

- q-position: [    0.0265957,    0.0000000,    0.0265957 ]
  distance:    0.0097959
  band:
  - # 1
    frequency:   -0.5845649943
    eigenvector:
    - # atom 1
      - [  0.70581802864334,  0.00000000000000 ]
      - [ -0.00000000000001, -0.00000000000000 ]
      - [ -0.03324337773423,  0.02675421983266 ]
    - # atom 2
      - [  0.70379469013474,  0.00406396977226 ]
      - [ -0.00000000000001, -0.00000000000000 ]
      - [ -0.03299403450430, -0.05973200126371 ]
  - # 2
    frequency:   -0.5845649943
    eigenvector:
    - # atom 1
      - [  0.04267212722651,  0.00000000000000 ]
      - [  0.00000000000003,  0.00000000000001 ]
      - [  0.54986186213013, -0.44252799022519 ]
    - # atom 2
      - [ -0.01174654214426, -0.06722006423303 ]
      - [  0.00000000000003,  0.00000000000001 ]
      - [  0.54573760214019, -0.44442541705267 ]
  - # 3
    frequency:    0.5003729246
    eigenvector:
    - # atom 1
      - [  0.00000000000001,  0.00000000000000 ]
      - [  0.70700845364722,  0.01179179678258 ]
      - [ -0.00000000000002,  0.00000000000002 ]
    - # atom 2
      - [  0.00000000000001,  0.00000000000000 ]
      - [  0.70700845364722,  0.01179179678258 ]
      - [ -0.00000000000002,  0.00000000000002 ]
  - # 4
    frequency:   13.0996936061
    eigenvector:
    - # atom 1
      - [  0.00000000000000, -0.00000000000000 ]
      - [  0.70596995748467, -0.04008015879579 ]
      - [ -0.00000000000001,  0.00000000000005 ]
    - # atom 2
      - [ -0.00000000000001, -0.00000000000000 ]
      - [ -0.70596995748467,  0.04008015879579 ]
      - [  0.00000000000001, -0.00000000000005 ]
  - # 5
    frequency:   13.1264932592
    eigenvector:
    - # atom 1
      - [ -0.00000000000000,  0.00000000000000 ]
      - [ -0.00000000000005,  0.00000000000001 ]
      - [ -0.06794216365808,  0.70383511023354 ]
    - # atom 2
      - [ -0.08604314024630, -0.00830586174414 ]
      - [  0.00000000000005, -0.00000000000001 ]
      - [  0.06743256085326, -0.69855596798969 ]
  - # 6
    frequency:   13.1264932592
    eigenvector:
    - # atom 1
      - [  0.70710678118655,  0.00000000000000 ]
      - [ -0.00000000000000,  0.00000000000000 ]
      - [  0.00000000000000,  0.00000000000000 ]
    - # atom 2
      - [ -0.70180309964921, -0.00000000000000 ]
      - [  0.00000000000000, -0.00000000000000 ]
      - [  0.00000000000000,  0.08644309875726 ]

- q-position: [    0.0319149,    0.0000000,    0.0319149 ]
  distance:    0.0117550
  band:
  - # 1
    frequency:   -0.7008194905
    eigenvector:
    - # atom 1
      - [ -0.00573056526949,  0.00000000000000 ]
      - [  0.00000000000000, -0.00000000000001 ]
      - [ -0.49605237681630,  0.50388411373707 ]
    - # atom 2
      - [  0.06808433389482,  0.07260685495086 ]
      - [  0.00000000000000, -0.00000000000001 ]
      - [ -0.49070989918611,  0.49929606741191 ]
  - # 2
    frequency:   -0.7008194905
    eigenvector:
    - # atom 1
      - [  0.70708355985816, -0.00000000000000 ]
      - [  0.00000000000001, -0.00000000000000 ]
      - [ -0.00402026108909,  0.00408373347360 ]
    - # atom 2
      - [  0.70006601247823,  0.00058844292942 ]
      - [  0.00000000000001, -0.00000000000000 ]
      - [ -0.00397696292958, -0.09945559649217 ]
  - # 3
    frequency:    0.6004115287
    eigenvector:
    - # atom 1
      - [ -0.00000000000001,  0.00000000000000 ]
      - [  0.70670596761873, -0.02380494343772 ]
      - [  0.00000000000001,  0.00000000000001 ]
    - # atom 2
      - [ -0.00000000000001, -0.00000000000000 ]
      - [  0.70670596761873, -0.02380494343772 ]
      - [  0.00000000000001,  0.00000000000001 ]
  - # 4
    frequency:   13.0936356457
    eigenvector:
    - # atom 1
      - [ -0.00000000000000,  0.00000000000000 ]
      - [  0.70710674875313,  0.00021416762972 ]
      - [  0.00000000000001, -0.00000000000000 ]
    - # atom 2
      - [  0.00000000000000,  0.00000000000000 ]
      - [ -0.70710674875313, -0.00021416762972 ]
      - [ -0.00000000000001,  0.00000000000000 ]
  - # 5
    frequency:   13.1321846005
    eigenvector:
    - # atom 1
      - [  0.00000000000000,  0.00000000000000 ]
      - [  0.00000000000000,  0.00000000000001 ]
      - [ -0.20947853012985, -0.67536563831353 ]
    - # atom 2
      - [  0.09885281722576, -0.03066123248934 ]
      - [ -0.00000000000000, -0.00000000000001 ]
      - [  0.20722244909178,  0.66809195919512 ]
  - # 6
    frequency:   13.1321846005
    eigenvector:
    - # atom 1
      - [  0.70710678118655,  0.00000000000000 ]
      - [  0.00000000000000, -0.00000000000000 ]
      - [  0.00000000000000,  0.00000000000000 ]
    - # atom 2
      - [ -0.69949125037327, -0.00000000000000 ]
      - [ -0.00000000000000,  0.00000000000000 ]
      - [ -0.00000000000000,  0.10349874709983 ]

- q-position: [    0.0372340,    0.0000000,    0.0372340 ]
  distance:    0.0137142
  band:
  - # 1
    frequency:   -0.8167176830
    eigenvector:
    - # atom 1
      - [  0.00000000000000,  0.00000000000000 ]
      - [ -0.00000000000000,  0.00000000000000 ]
      - [ -0.22213794434242, -0.67130822554422 ]
    - # atom 2
      - [ -0.11433258805597,  0.03783300295704 ]
      - [ -0.00000000000000,  0.00000000000000 ]
      - [ -0.21889250833213, -0.66150041042447 ]
  - # 2
    frequency:   -0.8167176830
    eigenvector:
    - # atom 1
      - [ -0.70710678118655,  0.00000000000000 ]
      - [  0.00000000000000,  0.00000000000000 ]
      - [  0.00000000000000,  0.00000000000000 ]
    - # atom 2
      - [ -0.69677594906518,  0.00000000000000 ]
      - [  0.00000000000000,  0.00000000000000 ]
      - [ -0.00000000000000,  0.12042955120868 ]
  - # 3
    frequency:    0.7004304617
    eigenvector:
    - # atom 1
      - [  0.00000000000000,  0.00000000000000 ]
      - [ -0.69734814114636,  0.11707079071963 ]
      - [  0.00000000000000,  0.00000000000000 ]
    - # atom 2
      - [  0.00000000000000, -0.00000000000000 ]
      - [ -0.69734814114636,  0.11707079071963 ]
      - [  0.00000000000000,  0.00000000000000 ]
  - # 4
    frequency:   13.0864792566
    eigenvector:
    - # atom 1
      - [ -0.00000000000000,  0.00000000000000 ]
      - [  0.70586083964454,  0.04195801539998 ]
      - [ -0.00000000000000, -0.00000000000000 ]
    - # atom 2
      - [  0.00000000000000, -0.00000000000000 ]
      - [ -0.70586083964454, -0.04195801539998 ]
      - [  0.00000000000000,  0.00000000000000 ]
  - # 5
    frequency:   13.1388805253
    eigenvector:
    - # atom 1
      - [  0.00000000000000,  0.00000000000000 ]
      - [  0.00000000000000,  0.00000000000000 ]
      - [  0.13429955562487,  0.69423600407856 ]
    - # atom 2
      - [ -0.11823748920042,  0.02287297426888 ]
      - [ -0.00000000000000,  0.00000000000000 ]
      - [ -0.13233743872817, -0.68409321404801 ]
  - # 6
    frequency:   13.1388805253
    eigenvector:
    - # atom 1
      - [ -0.70710678118655,  0.00000000000000 ]
      - [  0.00000000000000,  0.00000000000000 ]
      - [ -0.00000000000000,  0.00000000000000 ]
    - # atom 2
      - [  0.69677594906518, -0.00000000000000 ]
      - [ -0.00000000000000, -0.00000000000000 ]
      - [  0.00000000000000, -0.12042955120868 ]

- q-position: [    0.0425532,    0.0000000,    0.0425532 ]
  distance:    0.0156734
  band:
  - # 1
    frequency:   -0.9322025493
    eigenvector:
    - # atom 1
      - [ -0.70678546157549,  0.00000000000000 ]
      - [  0.00000000000001,  0.00000000000000 ]
      - [  0.00433654920095, -0.02086877204211 ]
    - # atom 2
      - [ -0.69739980229937, -0.00084152239025 ]
      - [  0.00000000000001,  0.00000000000000 ]
      - [  0.00425411554133,  0.11668208985883 ]
  - # 2
    frequency:   -0.9322025493
    eigenvector:
    - # atom 1
      - [  0.02131457964676, -0.00000000000000 ]
      - [ -0.00000000000000,  0.00000000000000 ]
      - [  0.14379875087548, -0.69200260688897 ]
    - # atom 2
      - [ -0.11337609248501, -0.02790464559342 ]
      - [ -0.00000000000000,  0.00000000000000 ]
      - [  0.14106527392542, -0.68298446607480 ]
  - # 3
    frequency:    0.8004264076
    eigenvector:
    - # atom 1
      - [  0.00000000000001,  0.00000000000000 ]
      - [  0.70694606113817,  0.01507536537610 ]
      - [  0.00000000000000, -0.00000000000000 ]
    - # atom 2
      - [  0.00000000000001, -0.00000000000000 ]
      - [  0.70694606113817,  0.01507536537610 ]
      - [  0.00000000000000, -0.00000000000000 ]
  - # 4
    frequency:   13.0782259437
    eigenvector:
    - # atom 1
      - [ -0.00000000000001,  0.00000000000000 ]
      - [ -0.70705815217886,  0.00829273401357 ]
      - [  0.00000000000000, -0.00000000000001 ]
    - # atom 2
      - [  0.00000000000001,  0.00000000000000 ]
      - [  0.70705815217886, -0.00829273401357 ]
      - [ -0.00000000000000,  0.00000000000000 ]
  - # 5
    frequency:   13.1465662387
    eigenvector:
    - # atom 1
      - [  0.04155089755059,  0.00000000000000 ]
      - [  0.00000000000001, -0.00000000000000 ]
      - [ -0.03369922656541, -0.70508005576788 ]
    - # atom 2
      - [  0.09606217190534, -0.00653945161801 ]
      - [ -0.00000000000001,  0.00000000000000 ]
      - [  0.03305863644560,  0.69974025270648 ]
  - # 6
    frequency:   13.1465662387
    eigenvector:
    - # atom 1
      - [ -0.70588492186244,  0.00000000000000 ]
      - [  0.00000000000001, -0.00000000000000 ]
      - [ -0.00198365635415, -0.04150352026911 ]
    - # atom 2
      - [  0.70052062533955, -0.00038493538508 ]
      - [ -0.00000000000001,  0.00000000000000 ]
      - [  0.00194594894093, -0.09626483564290 ]

- q-position: [    0.0478723,    0.0000000,    0.0478723 ]
  distance:    0.0176325
  band:
  - # 1
    frequency:   -1.0472181166
    eigenvector:
    - # atom 1
      - [ -0.04914288043651,  0.00000000000000 ]
      - [ -0.00000000000000,  0.00000000000000 ]
      - [ -0.21281733421390,  0.67252788757084 ]
    - # atom 2
      - [  0.09835260094264,  0.04630153320403 ]
      - [ -0.00000000000000,  0.00000000000000 ]
      - [ -0.20771948816821,  0.66710984713607 ]
  - # 2
    frequency:   -1.0472181166
    eigenvector:
    - # atom 1
      - [ -0.70539703522371,  0.00000000000000 ]
      - [ -0.00000000000000,  0.00000000000000 ]
      - [  0.01482634075258, -0.04685298621737 ]
    - # atom 2
      - [ -0.69869344411414, -0.00322568794119 ]
      - [ -0.00000000000000,  0.00000000000000 ]
      - [  0.01447118921920,  0.10773880810464 ]
  - # 3
    frequency:    0.9003960331
    eigenvector:
    - # atom 1
      - [  0.00000000000000,  0.00000000000000 ]
      - [ -0.70417711718132,  0.06430075923501 ]
      - [  0.00000000000000, -0.00000000000000 ]
    - # atom 2
      - [  0.00000000000000, -0.00000000000000 ]
      - [ -0.70417711718133,  0.06430075923501 ]
      - [  0.00000000000000, -0.00000000000000 ]
  - # 4
    frequency:   13.0688774395
    eigenvector:
    - # atom 1
      - [  0.00000000000000, -0.00000000000000 ]
      - [ -0.70710014523234,  0.00306343147622 ]
      - [ -0.00000000000000, -0.00000000000003 ]
    - # atom 2
      - [  0.00000000000001, -0.00000000000000 ]
      - [  0.70710014523234, -0.00306343147622 ]
      - [  0.00000000000000,  0.00000000000003 ]
  - # 5
    frequency:   13.1552249001
    eigenvector:
    - # atom 1
      - [ -0.00000000000000,  0.00000000000000 ]
      - [ -0.00000000000004,  0.00000000000000 ]
      - [  0.06736468695070,  0.70389061575790 ]
    - # atom 2
      - [ -0.15314172991550,  0.01465617592264 ]
      - [  0.00000000000004, -0.00000000000000 ]
      - [ -0.06575102702841, -0.68702955504878 ]
  - # 6
    frequency:   13.1552249001
    eigenvector:
    - # atom 1
      - [  0.70710678118655,  0.00000000000000 ]
      - [  0.00000000000000, -0.00000000000000 ]
      - [  0.00000000000000,  0.00000000000000 ]
    - # atom 2
      - [ -0.69016868015422, -0.00000000000000 ]
      - [ -0.00000000000000, -0.00000000000000 ]
      - [ -0.00000000000000,  0.15384145388740 ]

- q-position: [    0.0531915,    0.0000000,    0.0531915 ]
  distance:    0.0195917
  band:
  - # 1
    frequency:   -1.1617095842
    eigenvector:
    - # atom 1
      - [  0.02076995376427,  0.00000000000000 ]
      - [ -0.00000000000000, -0.00000000000000 ]
      - [ -0.27998443906258,  0.64898175852904 ]
    - # atom 2
      - [  0.17644791169272,  0.06742647658585 ]
      - [ -0.00000000000000, -0.00000000000000 ]
      - [ -0.27174428489373,  0.62487986712815 ]
  - # 2
    frequency:   -1.1617095842
    eigenvector:
    - # atom 1
      - [  0.70680167587565,  0.00000000000000 ]
      - [ -0.00000000000000, -0.00000000000000 ]
      - [  0.00822757507874, -0.01907086751288 ]
    - # atom 2
      - [  0.68140727823823, -0.00198138296636 ]
      - [ -0.00000000000000, -0.00000000000000 ]
      - [  0.00798543131064, -0.18872315218936 ]
  - # 3
    frequency:    1.0003359857
    eigenvector:
    - # atom 1
      - [  0.00000000000000,  0.00000000000000 ]
      - [  0.70469382565148,  0.05836618960220 ]
      - [  0.00000000000000, -0.00000000000000 ]
    - # atom 2
      - [  0.00000000000000, -0.00000000000000 ]
      - [  0.70469382565148,  0.05836618960220 ]
      - [  0.00000000000000,  0.00000000000000 ]
  - # 4
    frequency:   13.0584357029
    eigenvector:
    - # atom 1
      - [ -0.00000000000000,  0.00000000000000 ]
      - [ -0.70010126006880,  0.09928859778482 ]
      - [ -0.00000000000000,  0.00000000000001 ]
    - # atom 2
      - [ -0.00000000000000, -0.00000000000000 ]
      - [  0.70010126006880, -0.09928859778482 ]
      - [  0.00000000000000, -0.00000000000001 ]
  - # 5
    frequency:   13.1648377163
    eigenvector:
    - # atom 1
      - [  0.00000000000000, -0.00000000000000 ]
      - [ -0.00000000000001,  0.00000000000000 ]
      - [ -0.00361739037015, -0.70709752827097 ]
    - # atom 2
      - [  0.17028480258940, -0.00087114801062 ]
      - [  0.00000000000001, -0.00000000000000 ]
      - [  0.00351092783088,  0.68628711228902 ]
  - # 6
    frequency:   13.1648377163
    eigenvector:
    - # atom 1
      - [  0.70710678118655,  0.00000000000000 ]
      - [ -0.00000000000000,  0.00000000000000 ]
      - [  0.00000000000000,  0.00000000000000 ]
    - # atom 2
      - [ -0.68629609288428, -0.00000000000000 ]
      - [  0.00000000000000, -0.00000000000000 ]
      - [ -0.00000000000000,  0.17028703089715 ]

- q-position: [    0.0585106,    0.0000000,    0.0585106 ]
  distance:    0.0215509
  band:
  - # 1
    frequency:   -1.2756234361
    eigenvector:
    - # atom 1
      - [  0.70600485154612,  0.00000000000000 ]
      - [ -0.00000000000000, -0.00000000000000 ]
      - [  0.00385489202681, -0.03927199257489 ]
    - # atom 2
      - [  0.67063568011944, -0.00101693199913 ]
      - [ -0.00000000000000, -0.00000000000000 ]
      - [  0.00371833858699, -0.22412702728183 ]
  - # 2
    frequency:   -1.2756234361
    eigenvector:
    - # atom 1
      - [ -0.03946073483022,  0.00000000000000 ]
      - [ -0.00000000000000, -0.00000000000000 ]
      - [  0.06896912804137, -0.70262800241940 ]
    - # atom 2
      - [ -0.22341826078377, -0.01819426141380 ]
      - [ -0.00000000000000, -0.00000000000000 ]
      - [  0.06652600600061, -0.66732865975138 ]
  - # 3
    frequency:    1.1002428905
    eigenvector:
    - # atom 1
      - [  0.00000000000000,  0.00000000000000 ]
      - [  0.70681645290633,  0.02026084650055 ]
      - [ -0.00000000000000, -0.00000000000000 ]
    - # atom 2
      - [  0.00000000000000,  0.00000000000000 ]
      - [  0.70681645290633,  0.02026084650055 ]
      - [ -0.00000000000000, -0.00000000000000 ]
  - # 4
    frequency:   13.0469029175
    eigenvector:
    - # atom 1
      - [ -0.00000000000000, -0.00000000000000 ]
      - [ -0.70680129830793,  0.02078279842127 ]
      - [ -0.00000000000001,  0.00000000000001 ]
    - # atom 2
      - [ -0.00000000000000, -0.00000000000000 ]
      - [  0.70680129830793, -0.02078279842127 ]
      - [  0.00000000000000, -0.00000000000001 ]
  - # 5
    frequency:   13.1753840424
    eigenvector:
    - # atom 1
      - [ -0.70448794017811,  0.00000000000000 ]
      - [  0.00000000000000, -0.00000000000000 ]
      - [  0.00478157777131,  0.06061252888319 ]
    - # atom 2
      - [  0.66354280588765,  0.00126139445883 ]
      - [ -0.00000000000000,  0.00000000000000 ]
      - [ -0.00461219795784, -0.24431144318015 ]
  - # 6
    frequency:   13.1753840424
    eigenvector: