nqpoint: 467    
npath: 6      
segment_nqpoint:
- 101
- 71
- 71
- 87
- 87
- 50
labels:
- [ '$\Gamma$', '$\mathrm{H}$' ]
- [ '$\mathrm{H}$', '$\mathrm{N}$' ]
- [ '$\mathrm{N}$', '$\Gamma$' ]
- [ '$\Gamma$', '$\mathrm{P}$' ]
- [ '$\mathrm{P}$', '$\mathrm{H}$' ]
- [ '$\mathrm{P}$', '$\mathrm{N}$' ]
reciprocal_lattice:
- [  -0.00000000,   0.34843206,   0.34843206 ] # a*
- [   0.34843206,   0.00000000,   0.34843206 ] # b*
- [   0.34843206,   0.34843206,   0.00000000 ] # c*
natom: 1      
lattice:
- [    -1.435000000000000,     1.435000000000000,     1.435000000000000 ] # a
- [     1.435000000000000,    -1.435000000000000,     1.435000000000000 ] # b
- [     1.435000000000000,     1.435000000000000,    -1.435000000000000 ] # c
points:
- symbol: Fe # 1
  coordinates: [  0.000000000000000,  0.000000000000000,  0.000000000000000 ]
  mass: 55.845000

phonon:
- q-position: [    0.0000000,    0.0000000,    0.0000000 ]
  distance:    0.0000000
  band:
  - # 1
    frequency:   -0.0000000171
    eigenvector:
    - # atom 1
      - [ -0.35161638877752,  0.00000000000000 ]
      - [ -0.91479302111060,  0.00000000000000 ]
      - [ -0.19879548201707,  0.00000000000000 ]
  - # 2
    frequency:    0.0000000337
    eigenvector:
    - # atom 1
      - [  0.92950667345342,  0.00000000000000 ]
      - [ -0.31591783426882,  0.00000000000000 ]
      - [ -0.19029783497576,  0.00000000000000 ]
  - # 3
    frequency:    0.0000000455
    eigenvector:
    - # atom 1
      - [  0.11128009322702,  0.00000000000000 ]
      - [ -0.25169356471361,  0.00000000000000 ]
      - [  0.96138810598693,  0.00000000000000 ]

- q-position: [    0.0050000,   -0.0050000,    0.0050000 ]
  distance:    0.0034843
  band:
  - # 1
    frequency:    0.1307888070
    eigenvector:
    - # atom 1
      - [ -0.00000000000004,  0.00000000000000 ]
      - [ -0.00000000000005,  0.00000000000000 ]
      - [  1.00000000000000,  0.00000000000000 ]
  - # 2
    frequency:    0.1307888070
    eigenvector:
    - # atom 1
      - [ -1.00000000000000,  0.00000000000000 ]
      - [ -0.00000000000015,  0.00000000000000 ]
      - [ -0.00000000000004,  0.00000000000000 ]
  - # 3
    frequency:    0.1647485208
    eigenvector:
    - # atom 1
      - [ -0.00000000000015,  0.00000000000000 ]
      - [  1.00000000000000,  0.00000000000000 ]
      - [  0.00000000000005,  0.00000000000000 ]

- q-position: [    0.0100000,   -0.0100000,    0.0100000 ]
  distance:    0.0069686
  band:
  - # 1
    frequency:    0.2615339360
    eigenvector:
    - # atom 1
      - [ -0.00000000000000,  0.00000000000000 ]
      - [ -0.00000000000001,  0.00000000000000 ]
      - [  1.00000000000000,  0.00000000000000 ]
  - # 2
    frequency:    0.2615339360
    eigenvector:
    - # atom 1
      - [ -1.00000000000000,  0.00000000000000 ]
      - [ -0.00000000000004,  0.00000000000000 ]
      - [ -0.00000000000000,  0.00000000000000 ]
  - # 3
    frequency:    0.3294022510
    eigenvector:
    - # atom 1
      - [ -0.00000000000004,  0.00000000000000 ]
      - [  1.00000000000000,  0.00000000000000 ]
      - [  0.00000000000001,  0.00000000000000 ]

- q-position: [    0.0150000,   -0.0150000,    0.0150000 ]
  distance:    0.0104530
  band:
  - # 1
    frequency:    0.3921917435
    eigenvector:
    - # atom 1
      - [  0.00000000000000,  0.00000000000000 ]
      - [  0.00000000000001,  0.00000000000000 ]
      - [  1.00000000000000,  0.00000000000000 ]
  - # 2
    frequency:    0.3921917435
    eigenvector:
    - # atom 1
      - [ -1.00000000000000,  0.00000000000000 ]
      - [ -0.00000000000001,  0.00000000000000 ]
      - [  0.00000000000000, -0.00000000000000 ]
  - # 3
    frequency:    0.4938665143
    eigenvector:
    - # atom 1
      - [ -0.00000000000001,  0.00000000000000 ]
      - [  1.00000000000000,  0.00000000000000 ]
      - [ -0.00000000000001,  0.00000000000000 ]

- q-position: [    0.0200000,   -0.0200000,    0.0200000 ]
  distance:    0.0139373
  band:
  - # 1
    frequency:    0.5227186550
    eigenvector:
    - # atom 1
      - [ -1.00000000000000,  0.00000000000000 ]
      - [ -0.00000000000000,  0.00000000000000 ]
      - [  0.00000000000000,  0.00000000000000 ]
  - # 2
    frequency:    0.5227186550
    eigenvector:
    - # atom 1
      - [  0.00000000000000,  0.00000000000000 ]
      - [ -0.00000000000000,  0.00000000000000 ]
      - [ -1.00000000000000,  0.00000000000000 ]
  - # 3
    frequency:    0.6580468619
    eigenvector:
    - # atom 1
      - [  0.00000000000000,  0.00000000000000 ]
      - [ -1.00000000000000,  0.00000000000000 ]
      - [  0.00000000000000,  0.00000000000000 ]

- q-position: [    0.0250000,   -0.0250000,    0.0250000 ]
  distance:    0.0174216
  band:
  - # 1
    frequency:    0.6530711988
    eigenvector:
    - # atom 1
      - [  0.00000000000000,  0.00000000000000 ]
      - [  0.00000000000000,  0.00000000000000 ]
      - [  1.00000000000000,  0.00000000000000 ]
  - # 2
    frequency:    0.6530711988
    eigenvector:
    - # atom 1
      - [ -1.00000000000000,  0.00000000000000 ]
      - [ -0.00000000000000,  0.00000000000000 ]
      - [  0.00000000000000, -0.00000000000000 ]
  - # 3
    frequency:    0.8218491865
    eigenvector:
    - # atom 1
      - [ -0.00000000000000,  0.00000000000000 ]
      - [  1.00000000000000,  0.00000000000000 ]
      - [ -0.00000000000000,  0.00000000000000 ]

- q-position: [    0.0300000,   -0.0300000,    0.0300000 ]
  distance:    0.0209059
  band:
  - # 1
    frequency:    0.7832060408
    eigenvector:
    - # atom 1
      - [  1.00000000000000,  0.00000000000000 ]
      - [  0.00000000000000,  0.00000000000000 ]
      - [  0.00000000000000,  0.00000000000000 ]
  - # 2
    frequency:    0.7832060408
    eigenvector:
    - # atom 1
      - [  0.00000000000000,  0.00000000000000 ]
      - [ -0.00000000000000, -0.00000000000000 ]
      - [ -1.00000000000000,  0.00000000000000 ]
  - # 3
    frequency:    0.9851798356
    eigenvector:
    - # atom 1
      - [  0.00000000000000,  0.00000000000000 ]
      - [ -1.00000000000000,  0.00000000000000 ]
      - [  0.00000000000000,  0.00000000000000 ]

- q-position: [    0.0350000,   -0.0350000,    0.0350000 ]
  distance:    0.0243902
  band:
  - # 1
    frequency:    0.9130800179
    eigenvector:
    - # atom 1
      - [ -1.00000000000000,  0.00000000000000 ]
      - [ -0.00000000000000,  0.00000000000000 ]
      - [ -0.00000000000000,  0.00000000000000 ]
  - # 2
    frequency:    0.9130800179
    eigenvector:
    - # atom 1
      - [  0.00000000000000,  0.00000000000000 ]
      - [  0.00000000000000,  0.00000000000000 ]
      - [  1.00000000000000,  0.00000000000000 ]
  - # 3
    frequency:    1.1479457241
    eigenvector:
    - # atom 1
      - [ -0.00000000000000,  0.00000000000000 ]
      - [  1.00000000000000,  0.00000000000000 ]
      - [  0.00000000000000,  0.00000000000000 ]

- q-position: [    0.0400000,   -0.0400000,    0.0400000 ]
  distance:    0.0278746
  band:
  - # 1
    frequency:    1.0426501720
    eigenvector:
    - # atom 1
      - [  0.00000000000000,  0.00000000000000 ]
      - [  0.00000000000000,  0.00000000000000 ]
      - [  1.00000000000000,  0.00000000000000 ]
  - # 2
    frequency:    1.0426501720
    eigenvector:
    - # atom 1
      - [ -1.00000000000000,  0.00000000000000 ]
      - [ -0.00000000000000,  0.00000000000000 ]
      - [  0.00000000000000, -0.00000000000000 ]
  - # 3
    frequency:    1.3100544467
    eigenvector:
    - # atom 1
      - [ -0.00000000000000,  0.00000000000000 ]
      - [  1.00000000000000,  0.00000000000000 ]
      - [ -0.00000000000000,  0.00000000000000 ]

- q-position: [    0.0450000,   -0.0450000,    0.0450000 ]
  distance:    0.0313589
  band:
  - # 1
    frequency:    1.1718737831
    eigenvector:
    - # atom 1
      - [ -0.00000000000000,  0.00000000000000 ]
      - [ -0.00000000000000,  0.00000000000000 ]
      - [  1.00000000000000,  0.00000000000000 ]
  - # 2
    frequency:    1.1718737831
    eigenvector:
    - # atom 1
      - [ -1.00000000000000,  0.00000000000000 ]
      - [ -0.00000000000000,  0.00000000000000 ]
      - [ -0.00000000000000,  0.00000000000000 ]
  - # 3
    frequency:    1.4714143894
    eigenvector:
    - # atom 1
      - [ -0.00000000000000,  0.00000000000000 ]
      - [  1.00000000000000,  0.00000000000000 ]
      - [  0.00000000000000,  0.00000000000000 ]

- q-position: [    0.0500000,   -0.0500000,    0.0500000 ]
  distance:    0.0348432
  band:
  - # 1
    frequency:    1.3007084025
    eigenvector:
    - # atom 1
      - [ -0.00000000000000,  0.00000000000000 ]
      - [ -0.00000000000000,  0.00000000000000 ]
      - [  1.00000000000000,  0.00000000000000 ]
  - # 2
    frequency:    1.3007084025
    eigenvector:
    - # atom 1
      - [ -1.00000000000000,  0.00000000000000 ]
      - [ -0.00000000000000,  0.00000000000000 ]
      - [ -0.00000000000000,  0.00000000000000 ]
  - # 3
    frequency:    1.6319348405
    eigenvector:
    - # atom 1
      - [ -0.00000000000000,  0.00000000000000 ]
      - [  1.00000000000000,  0.00000000000000 ]
      - [  0.00000000000000,  0.00000000000000 ]

- q-position: [    0.0550000,   -0.0550000,    0.0550000 ]
  distance:    0.0383275
  band:
  - # 1
    frequency:    1.4291118856
    eigenvector:
    - # atom 1
      - [  1.00000000000000,  0.00000000000000 ]
      - [  0.00000000000000,  0.00000000000000 ]
      - [ -0.00000000000000,  0.00000000000000 ]
  - # 2
    frequency:    1.4291118856
    eigenvector:
    - # atom 1
      - [ -0.00000000000000,  0.00000000000000 ]
      - [  0.00000000000000,  0.00000000000000 ]
      - [ -1.00000000000000,  0.00000000000000 ]
  - # 3
    frequency:    1.7915260998
    eigenvector:
    - # atom 1
      - [  0.00000000000000,  0.00000000000000 ]
      - [ -1.00000000000000,  0.00000000000000 ]
      - [ -0.00000000000000,  0.00000000000000 ]

- q-position: [    0.0600000,   -0.0600000,    0.0600000 ]
  distance:    0.0418118
  band:
  - # 1
    frequency:    1.5570424233
    eigenvector:
    - # atom 1
      - [  0.00000000000000,  0.00000000000000 ]
      - [  0.00000000000000,  0.00000000000000 ]
      - [  1.00000000000000,  0.00000000000000 ]
  - # 2
    frequency:    1.5570424233
    eigenvector:
    - # atom 1
      - [ -1.00000000000000,  0.00000000000000 ]
      - [ -0.00000000000000,  0.00000000000000 ]
      - [  0.00000000000000, -0.00000000000000 ]
  - # 3
    frequency:    1.9500995881
    eigenvector:
    - # atom 1
      - [ -0.00000000000000,  0.00000000000000 ]
      - [  1.00000000000000,  0.00000000000000 ]
      - [ -0.00000000000000,  0.00000000000000 ]

- q-position: [    0.0650000,   -0.0650000,    0.0650000 ]
  distance:    0.0452962
  band:
  - # 1
    frequency:    1.6844585745
    eigenvector:
    - # atom 1
      - [ -1.00000000000000,  0.00000000000000 ]
      - [ -0.00000000000000,  0.00000000000000 ]
      - [ -0.00000000000000,  0.00000000000000 ]
  - # 2
    frequency:    1.6844585745
    eigenvector:
    - # atom 1
      - [  0.00000000000000,  0.00000000000000 ]
      - [  0.00000000000000,  0.00000000000000 ]
      - [  1.00000000000000,  0.00000000000000 ]
  - # 3
    frequency:    2.1075679546
    eigenvector:
    - # atom 1
      - [ -0.00000000000000,  0.00000000000000 ]
      - [  1.00000000000000,  0.00000000000000 ]
      - [  0.00000000000000,  0.00000000000000 ]

- q-position: [    0.0700000,   -0.0700000,    0.0700000 ]
  distance:    0.0487805
  band:
  - # 1
    frequency:    1.8113192965
    eigenvector:
    - # atom 1
      - [  1.00000000000000,  0.00000000000000 ]
      - [  0.00000000000000,  0.00000000000000 ]
      - [  0.00000000000000,  0.00000000000000 ]
  - # 2
    frequency:    1.8113192965
    eigenvector:
    - # atom 1
      - [  0.00000000000000,  0.00000000000000 ]
      - [ -0.00000000000000, -0.00000000000000 ]
      - [ -1.00000000000000,  0.00000000000000 ]
  - # 3
    frequency:    2.2638451832
    eigenvector:
    - # atom 1
      - [  0.00000000000000,  0.00000000000000 ]
      - [ -1.00000000000000,  0.00000000000000 ]
      - [  0.00000000000000,  0.00000000000000 ]

- q-position: [    0.0750000,   -0.0750000,    0.0750000 ]
  distance:    0.0522648
  band:
  - # 1
    frequency:    1.9375839761
    eigenvector:
    - # atom 1
      - [ -0.00000000000000,  0.00000000000000 ]
      - [ -0.00000000000000,  0.00000000000000 ]
      - [  1.00000000000000,  0.00000000000000 ]
  - # 2
    frequency:    1.9375839761
    eigenvector:
    - # atom 1
      - [ -1.00000000000000,  0.00000000000000 ]
      - [ -0.00000000000000,  0.00000000000000 ]
      - [ -0.00000000000000,  0.00000000000000 ]
  - # 3
    frequency:    2.4188466975
    eigenvector:
    - # atom 1
      - [ -0.00000000000000,  0.00000000000000 ]
      - [  1.00000000000000,  0.00000000000000 ]
      - [  0.00000000000000,  0.00000000000000 ]

- q-position: [    0.0800000,   -0.0800000,    0.0800000 ]
  distance:    0.0557491
  band:
  - # 1
    frequency:    2.0632124587
    eigenvector:
    - # atom 1
      - [  0.00000000000000,  0.00000000000000 ]
      - [  0.00000000000000,  0.00000000000000 ]
      - [  1.00000000000000,  0.00000000000000 ]
  - # 2
    frequency:    2.0632124587
    eigenvector:
    - # atom 1
      - [  1.00000000000000,  0.00000000000000 ]
      - [  0.00000000000000,  0.00000000000000 ]
      - [  0.00000000000000,  0.00000000000000 ]
  - # 3
    frequency:    2.5724894647
    eigenvector:
    - # atom 1
      - [  0.00000000000000,  0.00000000000000 ]
      - [  1.00000000000000,  0.00000000000000 ]
      - [  0.00000000000000,  0.00000000000000 ]

- q-position: [    0.0850000,   -0.0850000,    0.0850000 ]
  distance:    0.0592334
  band:
  - # 1
    frequency:    2.1881650779
    eigenvector:
    - # atom 1
      - [  0.00000000000000,  0.00000000000000 ]
      - [  0.00000000000000,  0.00000000000000 ]
      - [  1.00000000000000,  0.00000000000000 ]
  - # 2
    frequency:    2.1881650779
    eigenvector:
    - # atom 1
      - [  1.00000000000000,  0.00000000000000 ]
      - [  0.00000000000000,  0.00000000000000 ]
      - [  0.00000000000000,  0.00000000000000 ]
  - # 3
    frequency:    2.7246920971
    eigenvector:
    - # atom 1
      - [  0.00000000000000,  0.00000000000000 ]
      - [  1.00000000000000,  0.00000000000000 ]
      - [  0.00000000000000,  0.00000000000000 ]

- q-position: [    0.0900000,   -0.0900000,    0.0900000 ]
  distance:    0.0627178
  band:
  - # 1
    frequency:    2.3124026839
    eigenvector:
    - # atom 1
      - [  0.00000000000000,  0.00000000000000 ]
      - [  0.00000000000000,  0.00000000000000 ]
      - [  1.00000000000000,  0.00000000000000 ]
  - # 2
    frequency:    2.3124026839
    eigenvector:
    - # atom 1
      - [  1.00000000000000,  0.00000000000000 ]
      - [  0.00000000000000,  0.00000000000000 ]
      - [  0.00000000000000,  0.00000000000000 ]
  - # 3
    frequency:    2.8753749524
    eigenvector:
    - # atom 1
      - [  0.00000000000000,  0.00000000000000 ]
      - [  1.00000000000000,  0.00000000000000 ]
      - [  0.00000000000000,  0.00000000000000 ]

- q-position: [    0.0950000,   -0.0950000,    0.0950000 ]
  distance:    0.0662021
  band:
  - # 1
    frequency:    2.4358866707
    eigenvector:
    - # atom 1
      - [  1.00000000000000,  0.00000000000000 ]
      - [  0.00000000000000,  0.00000000000000 ]
      - [ -0.00000000000000,  0.00000000000000 ]
  - # 2
    frequency:    2.4358866707
    eigenvector:
    - # atom 1
      - [ -0.00000000000000,  0.00000000000000 ]
      - [  0.00000000000000,  0.00000000000000 ]
      - [ -1.00000000000000,  0.00000000000000 ]
  - # 3
    frequency:    3.0244602323
    eigenvector:
    - # atom 1
      - [  0.00000000000000,  0.00000000000000 ]
      - [ -1.00000000000000,  0.00000000000000 ]
      - [ -0.00000000000000,  0.00000000000000 ]

- q-position: [    0.1000000,   -0.1000000,    0.1000000 ]
  distance:    0.0696864
  band:
  - # 1
    frequency:    2.5585790033
    eigenvector:
    - # atom 1
      - [  1.00000000000000,  0.00000000000000 ]
      - [  0.00000000000000,  0.00000000000000 ]
      - [  0.00000000000000,  0.00000000000000 ]
  - # 2
    frequency:    2.5585790033
    eigenvector:
    - # atom 1
      - [  0.00000000000000,  0.00000000000000 ]
      - [  0.00000000000000,  0.00000000000000 ]
      - [  1.00000000000000,  0.00000000000000 ]
  - # 3
    frequency:    3.1718720787
    eigenvector:
    - # atom 1
      - [  0.00000000000000,  0.00000000000000 ]
      - [  1.00000000000000,  0.00000000000000 ]
      - [  0.00000000000000,  0.00000000000000 ]

- q-position: [    0.1050000,   -0.1050000,    0.1050000 ]
  distance:    0.0731707
  band:
  - # 1
    frequency:    2.6804422433
    eigenvector:
    - # atom 1
      - [  0.00000000000000,  0.00000000000000 ]
      - [  0.00000000000000,  0.00000000000000 ]
      - [  1.00000000000000,  0.00000000000000 ]
  - # 2
    frequency:    2.6804422433
    eigenvector:
    - # atom 1
      - [  1.00000000000000,  0.00000000000000 ]
      - [  0.00000000000000,  0.00000000000000 ]
      - [  0.00000000000000,  0.00000000000000 ]
  - # 3
    frequency:    3.3175366681
    eigenvector:
    - # atom 1
      - [  0.00000000000000,  0.00000000000000 ]
      - [  1.00000000000000,  0.00000000000000 ]
      - [  0.00000000000000,  0.00000000000000 ]

- q-position: [    0.1100000,   -0.1100000,    0.1100000 ]
  distance:    0.0766551
  band:
  - # 1
    frequency:    2.8014395741
    eigenvector:
    - # atom 1
      - [  1.00000000000000,  0.00000000000000 ]
      - [  0.00000000000000,  0.00000000000000 ]
      - [  0.00000000000000,  0.00000000000000 ]
  - # 2
    frequency:    2.8014395741
    eigenvector:
    - # atom 1
      - [  0.00000000000000,  0.00000000000000 ]
      - [  0.00000000000000,  0.00000000000000 ]
      - [  1.00000000000000,  0.00000000000000 ]
  - # 3
    frequency:    3.4613823037
    eigenvector:
    - # atom 1
      - [  0.00000000000000,  0.00000000000000 ]
      - [  1.00000000000000,  0.00000000000000 ]
      - [  0.00000000000000,  0.00000000000000 ]

- q-position: [    0.1150000,   -0.1150000,    0.1150000 ]
  distance:    0.0801394
  band:
  - # 1
    frequency:    2.9215348247
    eigenvector:
    - # atom 1
      - [  0.00000000000000,  0.00000000000000 ]
      - [  0.00000000000000,  0.00000000000000 ]
      - [  1.00000000000000,  0.00000000000000 ]
  - # 2
    frequency:    2.9215348247
    eigenvector:
    - # atom 1
      - [  1.00000000000000,  0.00000000000000 ]
      - [  0.00000000000000,  0.00000000000000 ]
      - [  0.00000000000000,  0.00000000000000 ]
  - # 3
    frequency:    3.6033395054
    eigenvector:
    - # atom 1
      - [  0.00000000000000,  0.00000000000000 ]
      - [  1.00000000000000,  0.00000000000000 ]
      - [  0.00000000000000,  0.00000000000000 ]

- q-position: [    0.1200000,   -0.1200000,    0.1200000 ]
  distance:    0.0836237
  band:
  - # 1
    frequency:    3.0406924928
    eigenvector:
    - # atom 1
      - [  0.00000000000000,  0.00000000000000 ]
      - [  0.00000000000000,  0.00000000000000 ]
      - [  1.00000000000000,  0.00000000000000 ]
  - # 2
    frequency:    3.0406924928
    eigenvector:
    - # atom 1
      - [  1.00000000000000,  0.00000000000000 ]
      - [  0.00000000000000,  0.00000000000000 ]
      - [  0.00000000000000,  0.00000000000000 ]
  - # 3
    frequency:    3.7433410971
    eigenvector:
    - # atom 1
      - [  0.00000000000000,  0.00000000000000 ]
      - [  1.00000000000000,  0.00000000000000 ]
      - [  0.00000000000000,  0.00000000000000 ]

- q-position: [    0.1250000,   -0.1250000,    0.1250000 ]
  distance:    0.0871080
  band:
  - # 1
    frequency:    3.1588777670
    eigenvector:
    - # atom 1
      - [  0.12631660754298,  0.00000000000000 ]
      - [  0.00000000000000,  0.00000000000000 ]
      - [  0.99198997709595,  0.00000000000000 ]
  - # 2
    frequency:    3.1588777670
    eigenvector:
    - # atom 1
      - [  0.99198997709595,  0.00000000000000 ]
      - [  0.00000000000000,  0.00000000000000 ]
      - [ -0.12631660754298,  0.00000000000000 ]
  - # 3
    frequency:    3.8813222917
    eigenvector:
    - # atom 1
      - [  0.00000000000000,  0.00000000000000 ]
      - [ -1.00000000000000,  0.00000000000000 ]
      - [  0.00000000000000,  0.00000000000000 ]

- q-position: [    0.1300000,   -0.1300000,    0.1300000 ]
  distance:    0.0905923
  band:
  - # 1
    frequency:    3.2760565475
    eigenvector:
    - # atom 1
      - [  0.00000000000000,  0.00000000000000 ]
      - [ -0.00000000000000,  0.00000000000000 ]
      - [  1.00000000000000,  0.00000000000000 ]
  - # 2
    frequency:    3.2760565475
    eigenvector:
    - # atom 1
      - [  1.00000000000000,  0.00000000000000 ]
      - [  0.00000000000000,  0.00000000000000 ]
      - [  0.00000000000000,  0.00000000000000 ]
  - # 3
    frequency:    4.0172207729
    eigenvector:
    - # atom 1
      - [  0.00000000000000,  0.00000000000000 ]
      - [ -1.00000000000000,  0.00000000000000 ]
      - [ -0.00000000000000,  0.00000000000000 ]

- q-position: [    0.1350000,   -0.1350000,    0.1350000 ]
  distance:    0.0940767
  band:
  - # 1
    frequency:    3.3921954660
    eigenvector:
    - # atom 1
      - [  0.00000000000000,  0.00000000000000 ]
      - [ -0.00000000000000,  0.00000000000000 ]
      - [  1.00000000000000,  0.00000000000000 ]
  - # 2
    frequency:    3.3921954660
    eigenvector:
    - # atom 1
      - [  1.00000000000000,  0.00000000000000 ]
      - [  0.00000000000000,  0.00000000000000 ]
      - [  0.00000000000000,  0.00000000000000 ]
  - # 3
    frequency:    4.1509767754
    eigenvector:
    - # atom 1
      - [  0.00000000000000,  0.00000000000000 ]
      - [ -1.00000000000000,  0.00000000000000 ]
      - [ -0.00000000000000,  0.00000000000000 ]

- q-position: [    0.1400000,   -0.1400000,    0.1400000 ]
  distance:    0.0975610
  band:
  - # 1
    frequency:    3.5072619046
    eigenvector:
    - # atom 1
      - [  0.00000000000000,  0.00000000000000 ]
      - [  0.00000000000000,  0.00000000000000 ]
      - [  1.00000000000000,  0.00000000000000 ]
  - # 2
    frequency:    3.5072619046
    eigenvector:
    - # atom 1
      - [  1.00000000000000,  0.00000000000000 ]
      - [  0.00000000000000,  0.00000000000000 ]
      - [  0.00000000000000,  0.00000000000000 ]
  - # 3
    frequency:    4.2825331607
    eigenvector:
    - # atom 1
      - [  0.00000000000000,  0.00000000000000 ]
      - [ -1.00000000000000,  0.00000000000000 ]
      - [  0.00000000000000,  0.00000000000000 ]

- q-position: [    0.1450000,   -0.1450000,    0.1450000 ]
  distance:    0.1010453
  band:
  - # 1
    frequency:    3.6212240132
    eigenvector:
    - # atom 1
      - [  0.00000000000000,  0.00000000000000 ]
      - [  0.00000000000000,  0.00000000000000 ]
      - [ -1.00000000000000,  0.00000000000000 ]
  - # 2
    frequency:    3.6212240132
    eigenvector:
    - # atom 1
      - [  1.00000000000000,  0.00000000000000 ]
      - [  0.00000000000000,  0.00000000000000 ]
      - [  0.00000000000000,  0.00000000000000 ]
  - # 3
    frequency:    4.4118354909
    eigenvector:
    - # atom 1
      - [ -0.00000000000000,  0.00000000000000 ]
      - [  1.00000000000000,  0.00000000000000 ]
      - [  0.00000000000000,  0.00000000000000 ]

- q-position: [    0.1500000,   -0.1500000,    0.1500000 ]
  distance:    0.1045296
  band:
  - # 1
    frequency:    3.7340507257
    eigenvector:
    - # atom 1
      - [  0.00000000000000,  0.00000000000000 ]
      - [ -0.00000000000000,  0.00000000000000 ]
      - [  1.00000000000000,  0.00000000000000 ]
  - # 2
    frequency:    3.7340507257
    eigenvector:
    - # atom 1
      - [  1.00000000000000,  0.00000000000000 ]
      - [  0.00000000000000,  0.00000000000000 ]
      - [  0.00000000000000,  0.00000000000000 ]
  - # 3
    frequency:    4.5388320992
    eigenvector:
    - # atom 1
      - [  0.00000000000000,  0.00000000000000 ]
      - [ -1.00000000000000,  0.00000000000000 ]
      - [ -0.00000000000000,  0.00000000000000 ]

- q-position: [    0.1550000,   -0.1550000,    0.1550000 ]
  distance:    0.1080139
  band:
  - # 1
    frequency:    3.8457117757
    eigenvector:
    - # atom 1
      - [  0.00000000000000,  0.00000000000000 ]
      - [ -0.00000000000000,  0.00000000000000 ]
      - [  1.00000000000000,  0.00000000000000 ]
  - # 2
    frequency:    3.8457117757
    eigenvector:
    - # atom 1
      - [  1.00000000000000,  0.00000000000000 ]
      - [  0.00000000000000,  0.00000000000000 ]
      - [  0.00000000000000,  0.00000000000000 ]
  - # 3
    frequency:    4.6634741564
    eigenvector:
    - # atom 1
      - [  0.00000000000000,  0.00000000000000 ]
      - [ -1.00000000000000,  0.00000000000000 ]
      - [ -0.00000000000000,  0.00000000000000 ]

- q-position: [    0.1600000,   -0.1600000,    0.1600000 ]
  distance:    0.1114983
  band:
  - # 1
    frequency:    3.9561777099
    eigenvector:
    - # atom 1
      - [  1.00000000000000,  0.00000000000000 ]
      - [  0.00000000000000,  0.00000000000000 ]
      - [  0.00000000000000,  0.00000000000000 ]
  - # 2
    frequency:    3.9561777099
    eigenvector:
    - # atom 1
      - [  0.00000000000000,  0.00000000000000 ]
      - [ -0.00000000000000,  0.00000000000000 ]
      - [  1.00000000000000,  0.00000000000000 ]
  - # 3
    frequency:    4.7857157351
    eigenvector:
    - # atom 1
      - [  0.00000000000000,  0.00000000000000 ]
      - [ -1.00000000000000,  0.00000000000000 ]
      - [ -0.00000000000000,  0.00000000000000 ]

- q-position: [    0.1650000,   -0.1650000,    0.1650000 ]
  distance:    0.1149826
  band:
  - # 1
    frequency:    4.0654199008
    eigenvector:
    - # atom 1
      - [  0.00000000000000,  0.00000000000000 ]
      - [  0.00000000000000,  0.00000000000000 ]
      - [  1.00000000000000,  0.00000000000000 ]
  - # 2
    frequency:    4.0654199008
    eigenvector:
    - # atom 1
      - [  1.00000000000000,  0.00000000000000 ]
      - [  0.00000000000000,  0.00000000000000 ]
      - [  0.00000000000000,  0.00000000000000 ]
  - # 3
    frequency:    4.9055138695
    eigenvector:
    - # atom 1
      - [  0.00000000000000,  0.00000000000000 ]
      - [ -1.00000000000000,  0.00000000000000 ]
      - [  0.00000000000000,  0.00000000000000 ]

- q-position: [    0.1700000,   -0.1700000,    0.1700000 ]
  distance:    0.1184669
  band:
  - # 1
    frequency:    4.1734105585
    eigenvector:
    - # atom 1
      - [  1.00000000000000,  0.00000000000000 ]
      - [  0.00000000000000,  0.00000000000000 ]
      - [  0.00000000000000,  0.00000000000000 ]
  - # 2
    frequency:    4.1734105585
    eigenvector:
    - # atom 1
      - [  0.00000000000000,  0.00000000000000 ]
      - [ -0.00000000000000,  0.00000000000000 ]
      - [  1.00000000000000,  0.00000000000000 ]
  - # 3
    frequency:    5.0228286118
    eigenvector:
    - # atom 1
      - [  0.00000000000000,  0.00000000000000 ]
      - [ -1.00000000000000,  0.00000000000000 ]
      - [ -0.00000000000000,  0.00000000000000 ]

- q-position: [    0.1750000,   -0.1750000,    0.1750000 ]
  distance:    0.1219512
  band:
  - # 1
    frequency:    4.2801227404
    eigenvector:
    - # atom 1
      - [  1.00000000000000,  0.00000000000000 ]
      - [  0.00000000000000,  0.00000000000000 ]
      - [  0.00000000000000,  0.00000000000000 ]
  - # 2
    frequency:    4.2801227404
    eigenvector:
    - # atom 1
      - [  0.00000000000000,  0.00000000000000 ]
      - [ -0.00000000000000,  0.00000000000000 ]
      - [  1.00000000000000,  0.00000000000000 ]
  - # 3
    frequency:    5.1376230847
    eigenvector:
    - # atom 1
      - [  0.00000000000000,  0.00000000000000 ]
      - [ -1.00000000000000,  0.00000000000000 ]
      - [ -0.00000000000000,  0.00000000000000 ]

- q-position: [    0.1800000,   -0.1800000,    0.1800000 ]
  distance:    0.1254355
  band:
  - # 1
    frequency:    4.3855303598
    eigenvector:
    - # atom 1
      - [  1.00000000000000,  0.00000000000000 ]
      - [  0.00000000000000,  0.00000000000000 ]
      - [  0.00000000000000,  0.00000000000000 ]
  - # 2
    frequency:    4.3855303598
    eigenvector:
    - # atom 1
      - [  0.00000000000000,  0.00000000000000 ]
      - [ -0.00000000000000,  0.00000000000000 ]
      - [  1.00000000000000,  0.00000000000000 ]
  - # 3
    frequency:    5.2498635303
    eigenvector:
    - # atom 1
      - [  0.00000000000000,  0.00000000000000 ]
      - [ -1.00000000000000,  0.00000000000000 ]
      - [ -0.00000000000000,  0.00000000000000 ]

- q-position: [    0.1850000,   -0.1850000,    0.1850000 ]
  distance:    0.1289199
  band:
  - # 1
    frequency:    4.4896081937
    eigenvector:
    - # atom 1
      - [  0.00000000000000,  0.00000000000000 ]
      - [ -0.00000000000000,  0.00000000000000 ]
      - [  1.00000000000000,  0.00000000000000 ]
  - # 2
    frequency:    4.4896081937
    eigenvector:
    - # atom 1
      - [  1.00000000000000,  0.00000000000000 ]
      - [  0.00000000000000,  0.00000000000000 ]