# Tetrahedron method
       -0.8303429911        0.0000000000
       -0.7805224126        0.0000000000
       -0.7307018342        0.0000000000
       -0.6808812558        0.0000000000
       -0.6310606773        0.0000000000
       -0.5812400989        0.0000000000
       -0.5314195204        0.0000000000
       -0.4815989420        0.0000000000
       -0.4317783636        0.0000000000
       -0.3819577851        0.0000000000
       -0.3321372067        0.0000000000
       -0.2823166283        0.0000000000
       -0.2324960498        0.0000000000
       -0.1826754714        0.0000000000
       -0.1328548929        0.0000000000
       -0.0830343145        0.0000000000
       -0.0332137361        0.0000000000
        0.0166068424        0.0000012998
        0.0664274208        0.0000219164
        0.1162479993        0.0000705489
        0.1660685777        0.0001509773
        0.2158891561        0.0002669813
        0.2657097346        0.0004223410
        0.3155303130        0.0006921130
        0.3653508915        0.0009935610
        0.4151714699        0.0015027145
        0.4649920483        0.0019204782
        0.5148126268        0.0023018703
        0.5646332052        0.0028521120
        0.6144537836        0.0034074021
        0.6642743621        0.0040466989
        0.7140949405        0.0047013417
        0.7639155190        0.0053053076
        0.8137360974        0.0060103300
        0.8635566758        0.0067831898
        0.9133772543        0.0075698060
        0.9631978327        0.0084523808
        1.0130184112        0.0093652659
        1.0628389896        0.0103833263
        1.1126595680        0.0114572959
        1.1624801465        0.0125074535
        1.2123007249        0.0135763926
        1.2621213033        0.0147200144
        1.3119418818        0.0160239060
        1.3617624602        0.0174105399
        1.4115830387        0.0187825234
        1.4614036171        0.0201547097
        1.5112241955        0.0215570373
        1.5610447740        0.0231232606
        1.6108653524        0.0248215011
        1.6606859309        0.0265432610
        1.7105065093        0.0282492971
        1.7603270877        0.0299479771
        1.8101476662        0.0317932190
        1.8599682446        0.0338399652
        1.9097888230        0.0359416175
        1.9596094015        0.0380285519
        2.0094299799        0.0401178233
        2.0592505584        0.0423450535
        2.1090711368        0.0447427975
        2.1588917152        0.0472353505
        2.2087122937        0.0497455349
        2.2585328721        0.0523036043
        2.3083534506        0.0549955280
        2.3581740290        0.0578500148
        2.4079946074        0.0608011753
        2.4578151859        0.0637779959
        2.5076357643        0.0668284152
        2.5574563427        0.0700442481
        2.6072769212        0.0734318991
        2.6570974996        0.0769212945
        2.7069180781        0.0805060509
        2.7567386565        0.0842355359
        2.8065592349        0.0881449500
        2.8563798134        0.0921959514
        2.9062003918        0.0963260451
        2.9560209703        0.1005851121
        3.0058415487        0.1051065599
        3.0556621271        0.1098751578
        3.1054827056        0.1147559012
        3.1553032840        0.1197074526
        3.2051238625        0.1249058597
        3.2549444409        0.1304421389
        3.3047650193        0.1362257411
        3.3545855978        0.1421291478
        3.4044061762        0.1482752733
        3.4542267546        0.1547953003
        3.5040473331        0.1616458689
        3.5538679115        0.1687158739
        3.6036884900        0.1761620362
        3.6535090684        0.1840528641
        3.7033296468        0.1922517334
        3.7531502253        0.2008057823
        3.8029708037        0.2099547522
        3.8527913822        0.2196438499
        3.9026119606        0.2297746714
        3.9524325390        0.2406515978
        4.0022531175        0.2522122571
        4.0520736959        0.2644498198
        4.1018942743        0.2778270481
        4.1517148528        0.2920264525
        4.2015354312        0.3074341278
        4.2513560097        0.3245733737
        4.3011765881        0.3430515178
        4.3509971665        0.3642683271
        4.4008177450        0.3880506816
        4.4506383234        0.4163300978
        4.5004589019        0.4530884298
        4.5502794803        0.5268133794
        4.6001000587        0.5410454961
        4.6499206372        0.5547348638
        4.6997412156        0.5691865763
        4.7495617940        0.5832285226
        4.7993823725        0.5983334226
        4.8492029509        0.6145266096
        4.8990235294        0.6312954564
        4.9488441078        0.6493110748
        4.9986646862        0.6683542415
        5.0484852647        0.6886036500
        5.0983058431        0.7103623982
        5.1481264216        0.7336417582
        5.1979470000        0.7583710568
        5.2477675784        0.7846072373
        5.2975881569        0.8100703297
        5.3474087353        0.7643032628
        5.3972293137        0.6943424266
        5.4470498922        0.6632011551
        5.4968704706        0.6429668194
        5.5466910491        0.6314305509
        5.5965116275        0.6248256380
        5.6463322059        0.6240387126
        5.6961527844        0.6268956105
        5.7459733628        0.6359299308
        5.7957939413        0.6518775424
        5.8456145197        0.6802346032
        5.8954350981        0.7539774724
        5.9452556766        0.7429781012
        5.9950762550        0.7295200076
        6.0448968335        0.7179060732
        6.0947174119        0.7058243781
        6.1445379903        0.6951698454
        6.1943585688        0.6856451341
        6.2441791472        0.6764056377
        6.2939997256        0.6673377078
        6.3438203041        0.6593360133
        6.3936408825        0.6516163811
        6.4434614610        0.6445628135
        6.4932820394        0.6373663147
        6.5431026178        0.6308433515
        6.5929231963        0.6236161990
        6.6427437747        0.6158584665
        6.6925643532        0.6089407172
        6.7423849316        0.6017086598
        6.7922055100        0.5946894376
        6.8420260885        0.5772019780
        6.8918466669        0.5615219127
        6.9416672453        0.5527572358
        6.9914878238        0.5458759500
        7.0413084022        0.5402138497
        7.0911289807        0.5359251109
        7.1409495591        0.5383491432
        7.1907701375        0.5406898725
        7.2405907160        0.5400974133
        7.2904112944        0.5472994842
        7.3402318729        0.5586254032
        7.3900524513        0.5763522071
        7.4398730297        0.5999688951
        7.4896936082        0.6346876820
        7.5395141866        0.6807167140
        7.5893347650        0.7480909802
        7.6391553435        0.8845605342
        7.6889759219        1.0285074377
        7.7387965004        1.0976795740
        7.7886170788        1.2224371351
        7.8384376572        1.6932505616
        7.8882582357        1.2985450644
        7.9380788141        1.0180075517
        7.9878993926        0.8507396724
        8.0377199710        0.7272223962
        8.0875405494        0.6183143283
        8.1373611279        0.5145763309
        8.1871817063        0.4117531162
        8.2370022847        0.3001805727
        8.2868228632        0.1433431871
        8.3366434416        0.0000000000
        8.3864640201        0.0000000000
        8.4362845985        0.0000000000
        8.4861051769        0.0000000000
        8.5359257554        0.0000000000
        8.5857463338        0.0000000000
        8.6355669123        0.0000000000
        8.6853874907        0.0000000000
        8.7352080691        0.0000000000
        8.7850286476        0.0000000000
        8.8348492260        0.0000000000
        8.8846698045        0.0000000000
        8.9344903829        0.0000000000
        8.9843109613        0.0000000000
        9.0341315398        0.0000000000
        9.0839521182        0.0000000000
        9.1337726966        0.0000000000
